   This run of MOLCAS is using the pymolcas driver

                             OPE
                             OPE          NMOL  CASOP  ENMOLC A   SO
                 OPE        NMOLC        AS  OP EN  MO LC     AS  OP
                OPENM       OL CA        SO  PE NM  OL CA     SOP EN
                OP EN      MO   LC       AS  OP ENMOL  CASO   PENMOL
                OP  EN     MO   LC       AS  OP EN     MO     LC ASO
               OP   E  NMOL  C  AS       OP  EN MO     LC     AS  OP
               OP  E   NMO   LC AS        OPEN  MO     LCASOP EN   M
               O  PEN   MO  LCA  SO
            OPE   NMO   L   CAS    OP
        OPENMOL  CASOP     ENMOL   CASOPE
     OPENMOLCA   SOPENMOLCASOPEN   MOLCASOPE
    OPENMOLCAS   OP           EN   MOL    CAS
    OPENMOLCAS       OP  ENM        O     LCA
    OPENMOLCAS    OPEN  MOLCASO     P  E  NMO
    OPENMOLCAS     OP               E  N  MOL
    OPENMOLCA   SO           PENM   O  L  CAS    OPEN    MO    LCAS
    OPENMOLCA   SOP           ENM   O  L  CAS   OP  EN  MOLC  AS   O
    OPENMOLCA   SOPE           NM      O  LCA   S      OP  EN MO
    OPENMOLC                AS         O  PEN   M      OL  CA  SOPE
    OPENMO        LCASOPE  NMOL        C  ASO   P      ENMOLC     AS
    OPE     NMO      LCA  SO     P     E   NM   OL  CA SO  PE N   MO
          OPENMOLCA            SOPE   NMO        LCAS  O    P  ENMO
     OPENMOLCASOPENMOLCASOPENMOLCASOPENMOLCA
        OPENMOLCASOPENMOLCASOPENMOLCASOPE
            OPENMOLCASOPENMOLCASOPENM
               OPENMOLCASOPENMOLCA        version: ea724fe96-dirty
                   OPENMOLCASO
                       OPE                tag:

 OpenMolcas is free software; you can redistribute it and/or modify it
 under the terms of the GNU Lesser General Public License version 2.1.
 OpenMolcas is distributed in the hope that it will be useful, but it
 is provided "as is" and without any express or implied warranties.
 For more details see the full text of the license in the file
 LICENSE or in <http://www.gnu.org/licenses/>.

                 Copyright (C) The OpenMolcas Authors
           For the author list and the recommended citation,
                   consult the file CONTRIBUTORS.md

           *************************************************
           * pymolcas version py2.28                       *
           *   build c4a6d18ded8cb6cad61d2372a9abd97c      *
           *   (after the EMIL interpreter by V. Veryazov) *
           *************************************************

configuration info
------------------
C Compiler ID: Intel
C flags: -std=gnu99
Fortran Compiler ID: Intel
Fortran flags: -fpp -i8 -r8 -heap-arrays
Definitions: _MOLCAS_;_I8_;_LINUX_
Parallel: OFF (GA=OFF)


   --------------------------------------------------------------------------------
  |
  |              Project: H6_0.82
  |       Submitted from: /home/grierjones/DDCASPT2/hydrogen_comps/H6_chain/H6_0.82
  |         Scratch area: /tmp/H6_0.82
  |      Save outputs to: /home/grierjones/DDCASPT2/hydrogen_comps/H6_chain/H6_0.82
  |               Molcas: /home/grierjones/Test/build
  |
  | Scratch area is empty
  |
  |       MOLCAS_DRIVER = /usr/local/pymolcas
  | MOLCAS_KEEP_WORKDIR = NO
  |  MOLCAS_NEW_WORKDIR = YES
  |       MOLCAS_NPROCS = 1
  |        MOLCAS_PRINT = NORMAL
  |       MOLCAS_SOURCE = /home/grierjones/Test/build
  |    MOLCAS_STRUCTURE = 0
  |
   --------------------------------------------------------------------------------

++ ---------   Input file   ---------

&GATEWAY
coord=H6_0.82.xyz
Basis = ANO-RCC-VDZP
Group = nosymm
Expert
End of Input

&SEWARD
End of Input

&SCF

>>> COPY $WorkDir/H6_0.82.scf.h5 $CurrDir/

&RASSCF
Title= RASSCF
FileOrb
/home/grierjones/DDCASPT2/hydrogen_comps/H6_chain/H6_0.79/H6_0.79.RasOrb
NACTEL
6 0 0
Inactive
0
RAS2
6
Symmetry
1
Spin
1
orblisting
all
ITERation
200 100
CIMX
200
SDAV
500

>>> COPY $WorkDir/H6_0.82.rasscf.h5 $CurrDir/

>>> COPY $WorkDir/GMJ_Fock_MO.csv $CurrDir/H6_0.82.GMJ_Fock_MO.csv

>>> COPY $WorkDir/GMJ_PT2_Fock_MO.csv $CurrDir/H6_0.82.GMJ_PT2_Fock_MO.csv

&MOTRA
Frozen=0
LUMORB

>>> COPY $WorkDir/GMJ_one_int_indx.csv $CurrDir/H6_0.82.GMJ_one_int_indx.csv

>>> COPY $WorkDir/GMJ_one_int.csv $CurrDir/H6_0.82.GMJ_one_int.csv

>>> COPY $WorkDir/GMJ_two_int_indx.csv $CurrDir/H6_0.82.GMJ_two_int_indx.csv

>>> COPY $WorkDir/GMJ_two_int.csv $CurrDir/H6_0.82.GMJ_two_int.csv

&CASPT2
Frozen
0

>>> FOREACH i IN (B,E,F,G,H)

  >>> FOREACH j IN (P,M)

    >>> IF (-FILE GMJ_e2_${i}_${j}.csv)

      >>> COPY $WorkDir/GMJ_RHS_${i}_${j}.csv $CurrDir/GMJ_RHS_${i}_${j}.csv

      >>> COPY $WorkDir/GMJ_IVECW_${i}_${j}.csv $CurrDir/GMJ_IVECW_${i}_${j}.csv

      >>> COPY $WorkDir/GMJ_IVECX_${i}_${j}.csv $CurrDir/GMJ_IVECX_${i}_${j}.csv

      >>> COPY $WorkDir/GMJ_IVECC2_${i}_${j}.csv $CurrDir/GMJ_IVECC2_${i}_${j}.csv

      >>> COPY $WorkDir/GMJ_e2_${i}_${j}.csv $CurrDir/GMJ_e2_${i}_${j}.csv

    >>> END IF

  >>> END FOREACH

>>> END FOREACH

>>> FOREACH i IN (A,C,D)

  >>> IF (-FILE GMJ_e2_$i.csv)

    >>> COPY $WorkDir/GMJ_RHS_$i.csv $CurrDir/GMJ_RHS_$i.csv

    >>> COPY $WorkDir/GMJ_IVECW_$i.csv $CurrDir/GMJ_IVECW_$i.csv

    >>> COPY $WorkDir/GMJ_IVECX_$i.csv $CurrDir/GMJ_IVECX_$i.csv

    >>> COPY $WorkDir/GMJ_IVECC2_$i.csv $CurrDir/GMJ_IVECC2_$i.csv

    >>> COPY $WorkDir/GMJ_e2_$i.csv $CurrDir/GMJ_e2_$i.csv

  >>> END IF

>>> END FOREACH

-- ----------------------------------

--- Start Module: gateway at Tue Nov 12 16:12:49 2024 ---
 
()()()()()()()()()()()()()()()()()()()()()()()()()()()()()()()()()()()()()()()()()()()()()()()()()()

                                              &GATEWAY

                                   only a single process is used
                       available to each process: 2.0 GB of memory, 1 thread?
()()()()()()()()()()()()()()()()()()()()()()()()()()()()()()()()()()()()()()()()()()()()()()()()()()
 
 ###############################################################################
 ###############################################################################
 ###                                                                         ###
 ###                                                                         ###
 ###                                                                         ###
 ###    WARNING: EXPERT option is ON!                                        ###
 ###                                                                         ###
 ###                                                                         ###
 ###############################################################################
 ###############################################################################
 
++    Symmetry information:
      ---------------------
 
                    Character Table for C1 
 
                             E  
                    a        1  x, y, xy, Rz, z, xz, Ry, yz, Rx, I
--
 
 
++    Basis set information:
      ----------------------
 
 
      Basis set label: H.ANO-RCC...2S1P.
 
      Electronic valence basis set:
      ------------------
      Associated Effective Charge   1.000000 au
      Associated Actual Charge      1.000000 au
      Nuclear Model: Point charge
 
      Shell  nPrim  nBasis  Cartesian Spherical Contaminant
         s       8       2        X                  
         p       4       1        X                  
--
 
 
++    Molecular structure info:
      -------------------------
 
                    ************************************************ 
                    **** Cartesian Coordinates / Bohr, Angstrom **** 
                    ************************************************ 
 
     Center  Label                x              y              z                     x              y              z
        1      H1               0.000000       0.000000       0.000000              0.000000       0.000000       0.000000
        2      H2               0.000000       0.000000       1.546140              0.000000       0.000000       0.818182
        3      H3               0.000000       0.000000       3.092280              0.000000       0.000000       1.636364
        4      H4               0.000000       0.000000       4.638418              0.000000       0.000000       2.454545
        5      H5               0.000000       0.000000       6.184558              0.000000       0.000000       3.272727
        6      H6               0.000000       0.000000       7.730698              0.000000       0.000000       4.090909
 
                    *************************************** 
                    *    InterNuclear Distances / Bohr    * 
                    *************************************** 
 
               1 H1            2 H2            3 H3            4 H4            5 H5            6 H6    
    1 H1       0.000000
    2 H2       1.546140        0.000000
    3 H3       3.092280        1.546140        0.000000
    4 H4       4.638418        3.092278        1.546138        0.000000
    5 H5       6.184558        4.638418        3.092278        1.546140        0.000000
    6 H6       7.730698        6.184558        4.638418        3.092280        1.546140        0.000000
 
                    ******************************************* 
                    *    InterNuclear Distances / Angstrom    * 
                    ******************************************* 
 
               1 H1            2 H2            3 H3            4 H4            5 H5            6 H6    
    1 H1       0.000000
    2 H2       0.818182        0.000000
    3 H3       1.636364        0.818182        0.000000
    4 H4       2.454545        1.636363        0.818181        0.000000
    5 H5       3.272727        2.454545        1.636363        0.818182        0.000000
    6 H6       4.090909        3.272727        2.454545        1.636364        0.818182        0.000000
 
                    ************************************** 
                    *    Valence Bond Angles / Degree    * 
                    ************************************** 
                          Atom centers                 Phi
                      1 H1       2 H2       3 H3       180.00
                      2 H2       3 H3       4 H4       180.00
                      3 H3       4 H4       5 H5       180.00
                      4 H4       5 H5       6 H6       180.00
--
 
 
            Nuclear Potential Energy              5.62691800 au
 
 ###############################################################################
 ###############################################################################
 ###                                                                         ###
 ###                                                                         ###
 ###    There were warnings during the execution                             ###
 ###    Please, check the output with care!                                  ###
 ###                                                                         ###
 ###                                                                         ###
 ###############################################################################
 ###############################################################################
--- Stop Module: gateway at Tue Nov 12 16:12:49 2024 /rc=_RC_ALL_IS_WELL_ ---
*** files: xmldump
    saved to directory /home/grierjones/DDCASPT2/hydrogen_comps/H6_chain/H6_0.82

--- Start Module: seward at Tue Nov 12 16:12:49 2024 ---
 
()()()()()()()()()()()()()()()()()()()()()()()()()()()()()()()()()()()()()()()()()()()()()()()()()()

                                              &SEWARD

                                   only a single process is used
                       available to each process: 2.0 GB of memory, 1 thread?
()()()()()()()()()()()()()()()()()()()()()()()()()()()()()()()()()()()()()()()()()()()()()()()()()()
 
 ###############################################################################
 ###############################################################################
 ###                                                                         ###
 ###                                                                         ###
 ###                                                                         ###
 ###    WARNING: EXPERT option is ON!                                        ###
 ###                                                                         ###
 ###                                                                         ###
 ###############################################################################
 ###############################################################################
               SEWARD will generate:
                  Multipole Moment integrals up to order  2
                  Kinetic Energy integrals
                  Nuclear Attraction integrals (point charge)
                  One-Electron Hamiltonian integrals
                  Velocity integrals
                  Relativistic Douglas-Kroll-Hess integrals:
                    - Parametrization         : EXP
                    - DKH order of Hamiltonian: 2
                    - DKH order of Properties : 0
                         - multipole moment operators
                         - electric potential operators
                         - contact operators
                  Atomic mean-field integrals
                  Two-Electron Repulsion integrals
 
                   Integrals are discarded if absolute value <: 0.10E-13
                   Integral cutoff threshold is set to       <: 0.10E-15
 
            Nuclear Potential Energy              5.62691800 au
 
 
      Basis set specifications :
      Symmetry species         a  
      Basis functions           30
 
 
  Input file to MOLDEN was generated!
 
 ###############################################################################
 ###############################################################################
 ###                                                                         ###
 ###                                                                         ###
 ###    There were warnings during the execution                             ###
 ###    Please, check the output with care!                                  ###
 ###                                                                         ###
 ###                                                                         ###
 ###############################################################################
 ###############################################################################
--- Stop Module: seward at Tue Nov 12 16:12:50 2024 /rc=_RC_ALL_IS_WELL_ ---
*** files: H6_0.82.GssOrb H6_0.82.guessorb.h5 H6_0.82.guessorb.molden xmldump
    saved to directory /home/grierjones/DDCASPT2/hydrogen_comps/H6_chain/H6_0.82

*** symbolic link created: INPORB -> H6_0.82.GssOrb
--- Start Module: scf at Tue Nov 12 16:12:50 2024 ---
 
()()()()()()()()()()()()()()()()()()()()()()()()()()()()()()()()()()()()()()()()()()()()()()()()()()

                                                &SCF

                                   only a single process is used
                       available to each process: 2.0 GB of memory, 1 thread?
()()()()()()()()()()()()()()()()()()()()()()()()()()()()()()()()()()()()()()()()()()()()()()()()()()
 
++    Input section:
      --------------
 
      Header of the integral files:
      
       Integrals generated by seward 4.2.0  , Tue Nov 12 16:12:49 2024
 
 
      Cartesian coordinates in Angstrom:
      -----------------------------------------------------
      No.  Label        X            Y            Z        
      -----------------------------------------------------
       1   H1         0.00000000   0.00000000   0.00000000
       2   H2         0.00000000   0.00000000   0.81818200
       3   H3         0.00000000   0.00000000   1.63636400
       4   H4         0.00000000   0.00000000   2.45454500
       5   H5         0.00000000   0.00000000   3.27272700
       6   H6         0.00000000   0.00000000   4.09090900
      -----------------------------------------------------
      Nuclear repulsion energy =    5.62691800
--
 
++    Orbital specifications:
      -----------------------
 
      Symmetry species               1
                                     a
      Frozen orbitals                0
      Occupied orbitals              3
      Secondary orbitals            27
      Deleted orbitals               0
      Total number of orbitals      30
      Number of basis functions     30
--
 
      Molecular charge                           0.000
 
++    Optimization specifications:
      ----------------------------
 
      SCF Algorithm: Conventional
      Minimized density differences are used
      Number of density matrices in core                5
      Maximum number of NDDO SCF iterations           400
      Maximum number of HF SCF iterations             400
      Threshold for SCF energy change            0.10E-08
      Threshold for density matrix               0.10E-03
      Threshold for Fock matrix                  0.15E-03
      Threshold for linear dependence            0.10E-08
      Threshold at which DIIS is turned on       0.15E+00
      Threshold at which QNR/C2DIIS is turned on 0.75E-01
      Threshold for Norm(delta) (QNR/C2DIIS)     0.20E-04
      DIIS extrapolation of the SCF procedure
      All orbitals punched on: SCFORB
--
 
      Input vectors read from INPORB
      Orbital file label: *Guess orbitals
 
 
++ Convergence information
                                   SCF        iterations: Energy and convergence statistics
 
Iter     Tot. SCF        One-elec.       Two-elec.     Energy      Max Dij or  Max Fij      DNorm      TNorm      AccCon     Time
         Energy          Energy          Energy        Change      Delta Norm                                                in Sec.
   1    -3.114865617   -13.638096344     4.896312724   0.00E+00    0.25E+00*   0.15E+00*    0.33E+01   0.12E+02   None         0.
   2    -3.220891835   -14.020574914     5.172765077  -0.11E+00*   0.47E-01*   0.23E-01*    0.16E+01   0.13E+02   EDIIS        0.
   3    -3.223987741   -14.009647177     5.158741432  -0.31E-02*   0.10E-01*   0.49E-02*    0.35E+00   0.13E+02   EDIIS        0.
   4    -3.224123708   -14.012154719     5.161113008  -0.14E-03*   0.88E-03*   0.14E-02*    0.27E-01   0.13E+02   c2DIIS       0.
   5    -3.224131723   -14.012300990     5.161251265  -0.80E-05*   0.14E-03*   0.66E-04     0.25E-02   0.13E+02   QNRc2DIIS    0.
   6    -3.224131772   -14.012333675     5.161283899  -0.49E-07*   0.82E-04*   0.24E-04     0.44E-03   0.13E+02   QNRc2DIIS    0.
   7    -3.224131780   -14.012331969     5.161282186  -0.75E-08*   0.24E-05    0.12E-05     0.99E-04   0.13E+02   QNRc2DIIS    0.
   8    -3.224131780   -14.012333857     5.161284075  -0.13E-10    0.83E-06    0.31E-06     0.44E-05   0.13E+02   QNRc2DIIS    0.
 
       Convergence after  8 Macro Iterations
--
 
 *****************************************************************************************************************************
 *                                                                                                                           *
 *                                             SCF/KS-DFT Program, Final results                                             *
 *                                                                                                                           *
 *                                                                                                                           *
 *                                                                                                                           *
 *                                                       Final Results                                                       *
 *                                                                                                                           *
 *****************************************************************************************************************************
 
::    Total SCF energy                                 -3.2241317798
      One-electron energy                             -14.0123338572
      Two-electron energy                               5.1612840747
      Nuclear repulsion energy                          5.6269180027
      Kinetic energy (interpolated)                     3.4922633114
      Virial theorem                                    0.9232212729
      Total spin, S(S+1)                                0.0000000000
      Total spin, S                                     0.0000000000
      Max non-diagonal density matrix element           0.0000011413
      Max non-diagonal Fock matrix element              0.0000001181
 
 
      All orbitals with orbital energies smaller than  E(LUMO)+0.5 are printed
 
++    Molecular orbitals:
      -------------------
 
      Title: SCF orbitals

      Molecular orbitals for symmetry species 1: a  
 
          Orbital            1         2         3         4         5         6         7         8         9    
          Energy           -0.8151   -0.6434   -0.3863    0.1113    0.1732    0.3405    0.3537    0.5328    0.5328
          Occ. No.          2.0000    2.0000    2.0000    0.0000    0.0000    0.0000    0.0000    0.0000    0.0000
 
        1 H1     1s         0.2143   -0.3766    0.4647   -1.2963    0.4376    2.0335   -0.1133    0.0000   -0.0000
        2 H1     2s         0.0421   -0.0172    0.0356   -0.8988    0.5900    1.5535   -0.6468    0.0000   -0.0000
        3 H1     2px       -0.0000    0.0000   -0.0000   -0.0000    0.0000    0.0000    0.0000   -0.1057    0.1432
        4 H1     2py        0.0000   -0.0000   -0.0000    0.0000   -0.0000   -0.0000    0.0000    0.1432    0.1057
        5 H1     2pz        0.0230   -0.0307    0.0110   -0.0463    0.0252    0.1221   -0.1252    0.0000   -0.0000
        6 H2     1s         0.1810   -0.3157    0.3547    1.3035   -0.8683   -2.5202    0.7382   -0.0000    0.0000
        7 H2     2s        -0.0937    0.0947    0.0974    0.7534   -0.3266   -1.8752    0.3893   -0.0000    0.0000
        8 H2     2px       -0.0000    0.0000   -0.0000   -0.0000   -0.0000    0.0000    0.0000   -0.1557    0.2111
        9 H2     2py        0.0000   -0.0000   -0.0000    0.0000   -0.0000   -0.0000   -0.0000    0.2111    0.1557
       10 H2     2pz        0.0133    0.0063   -0.0466   -0.0326    0.0366    0.1779   -0.2085    0.0000    0.0000
       11 H3     1s         0.3525   -0.1099   -0.5111   -0.1365    0.3059    0.8656   -2.1448   -0.0000   -0.0000
       12 H3     2s        -0.0485    0.0462   -0.0998   -0.3088    0.3986    0.2453   -1.4639   -0.0000    0.0000
       13 H3     2px       -0.0000    0.0000   -0.0000   -0.0000    0.0000    0.0000    0.0000   -0.1925    0.2609
       14 H3     2py       -0.0000    0.0000   -0.0000   -0.0000    0.0000   -0.0000    0.0000    0.2609    0.1925
       15 H3     2pz        0.0069    0.0305   -0.0331   -0.0754    0.0059    0.0428   -0.1613    0.0000    0.0000
       16 H4     1s         0.3525    0.1099   -0.5111    0.1365    0.3059    0.8656    2.1448    0.0000    0.0000
       17 H4     2s        -0.0485   -0.0462   -0.0998    0.3088    0.3986    0.2453    1.4639    0.0000    0.0000
       18 H4     2px       -0.0000    0.0000   -0.0000   -0.0000    0.0000    0.0000    0.0000   -0.1925    0.2609
       19 H4     2py       -0.0000   -0.0000    0.0000    0.0000   -0.0000   -0.0000    0.0000    0.2609    0.1925
       20 H4     2pz       -0.0069    0.0305    0.0331   -0.0754   -0.0059   -0.0428   -0.1613    0.0000    0.0000
       21 H5     1s         0.1810    0.3157    0.3547   -1.3035   -0.8683   -2.5202   -0.7382   -0.0000   -0.0000
       22 H5     2s        -0.0937   -0.0947    0.0974   -0.7534   -0.3266   -1.8752   -0.3893   -0.0000   -0.0000
       23 H5     2px        0.0000    0.0000   -0.0000   -0.0000    0.0000    0.0000    0.0000   -0.1557    0.2111
       24 H5     2py        0.0000   -0.0000    0.0000   -0.0000   -0.0000   -0.0000   -0.0000    0.2111    0.1557
       25 H5     2pz       -0.0133    0.0063    0.0466   -0.0326   -0.0366   -0.1779   -0.2085   -0.0000    0.0000
       26 H6     1s         0.2143    0.3766    0.4647    1.2963    0.4376    2.0335    0.1133    0.0000    0.0000
       27 H6     2s         0.0421    0.0172    0.0356    0.8988    0.5900    1.5535    0.6468    0.0000   -0.0000
       28 H6     2px       -0.0000    0.0000    0.0000   -0.0000    0.0000    0.0000    0.0000   -0.1057    0.1432
       29 H6     2py        0.0000   -0.0000   -0.0000   -0.0000   -0.0000   -0.0000   -0.0000    0.1432    0.1057
       30 H6     2pz       -0.0230   -0.0307   -0.0110   -0.0463   -0.0252   -0.1221   -0.1252   -0.0000    0.0000
--
 
 
++    Molecular charges:
      ------------------
 
      Mulliken charges per centre and basis function type
      ---------------------------------------------------
 
                H1      H2      H3      H4      H5      H6    
      1s       1.1240  0.8006  0.9859  0.9859  0.8006  1.1240
      2s       0.0101 -0.0007 -0.0831 -0.0831 -0.0007  0.0101
      2px      0.0000  0.0000  0.0000  0.0000  0.0000  0.0000
      2pz      0.0287  0.0688  0.0658  0.0658  0.0688  0.0287
      2py      0.0000  0.0000 -0.0000 -0.0000  0.0000  0.0000
      Total    1.1627  0.8687  0.9686  0.9686  0.8687  1.1627
 
      N-E     -0.1627  0.1313  0.0314  0.0314  0.1313 -0.1627
 
      Total electronic charge=    6.000000
 
      Total            charge=   -0.000000
--
 
 
  Input file to MOLDEN was generated!
 
 
++    Static properties:
      ------------------
 
 
      LoProp Charges per center
 

                   H1       H2       H3       H4       H5       H6    
      Nuclear      1.0000   1.0000   1.0000   1.0000   1.0000   1.0000
      Electronic  -1.0529  -0.9711  -0.9760  -0.9760  -0.9711  -1.0529
 
      Total       -0.0529   0.0289   0.0240   0.0240   0.0289  -0.0529
--
 
 
++    Natural Bond Order analysis
      ---------------------------
      Based on LoProp computed density
      -------------------------------------------------------------------------------------
      Atom A       Atom B       Bond Order | Atom A       Atom B       Bond Order
        H1           H2             0.975  |   H5           H6             0.975
        H3           H4             0.949  |
      -------------------------------------------------------------------------------------
      NBO located      5.798 electrons involved in    3 bonds.
      The remaining    0.202 electrons are to be considered as diffuse
--
 
 
++    Molecular properties:
      ---------------------
 
      Charge (e):
                      =   -0.0000
      Dipole Moment (Debye):
      Origin of the operator (Ang)=    0.0000    0.0000    0.0000
                   X=  5.0958E-14               Y= -1.5264E-14               Z=  3.8107E-12           Total=  3.8111E-12
      Quadrupole Moment (Debye*Ang):
      Origin of the operator (Ang)=    0.0000    0.0000    2.0455
                  XX= -6.1408E+00              XY=  1.1067E-28              XZ= -1.0031E-13              YY= -6.1408E+00
                  YZ=  3.3246E-14              ZZ= -8.0101E+00
      In traceless form (Debye*Ang)
                  XX=  9.3468E-01              XY=  1.6601E-28              XZ= -1.5047E-13              YY=  9.3468E-01
                  YZ=  4.9869E-14              ZZ= -1.8694E+00
--
 
 
  Input file to MOLDEN was generated!
 
 ###############################################################################
 ###############################################################################
 ###                                                                         ###
 ###                                                                         ###
 ###    RunFile label nBas                                                   ###
 ###    was used       78 times                                              ###
 ###                                                                         ###
 ###                                                                         ###
 ###############################################################################
 ###############################################################################
--- Stop Module: scf at Tue Nov 12 16:12:50 2024 /rc=_RC_ALL_IS_WELL_ ---
*** files: H6_0.82.LprOrb H6_0.82.LoProp.molden H6_0.82.scf.molden H6_0.82.ScfOrb H6_0.82.scf.h5 xmldump
    saved to directory /home/grierjones/DDCASPT2/hydrogen_comps/H6_chain/H6_0.82

>>> COPY /tmp/H6_0.82/H6_0.82.scf.h5 /home/grierjones/DDCASPT2/hydrogen_comps/H6_chain/H6_0.82/

*** symbolic link created: INPORB -> H6_0.82.ScfOrb
--- Start Module: rasscf at Tue Nov 12 16:12:50 2024 ---
 
()()()()()()()()()()()()()()()()()()()()()()()()()()()()()()()()()()()()()()()()()()()()()()()()()()

                                              &RASSCF

                                   only a single process is used
                       available to each process: 2.0 GB of memory, 1 thread?
()()()()()()()()()()()()()()()()()()()()()()()()()()()()()()()()()()()()()()()()()()()()()()()()()()
 
 
      Header of the ONEINT file:
      --------------------------
      
      Integrals generated by seward 4.2.0  , Tue Nov 12 16:12:49 2024
 
 
      OrdInt status: non-squared
 
 
      Cartesian coordinates in Angstrom:
      -----------------------------------------------------
      No.  Label        X            Y            Z        
      -----------------------------------------------------
       1   H1         0.00000000   0.00000000   0.00000000
       2   H2         0.00000000   0.00000000   0.81818200
       3   H3         0.00000000   0.00000000   1.63636400
       4   H4         0.00000000   0.00000000   2.45454500
       5   H5         0.00000000   0.00000000   3.27272700
       6   H6         0.00000000   0.00000000   4.09090900
      -----------------------------------------------------
      Nuclear repulsion energy =    5.62691800
 
++    Wave function specifications:
      -----------------------------
 
      Number of closed shell electrons           0
      Number of electrons in active shells       6
      Max number of holes in RAS1 space          0
      Max nr of electrons in RAS3 space          0
      Number of inactive orbitals                0
      Number of active orbitals                  6
      Number of secondary orbitals              24
      Spin quantum number                      0.0
      State symmetry                             1
--
 
++    Orbital specifications:
      -----------------------
 
      Symmetry species                           1
                                                 a
      Frozen orbitals                            0
      Inactive orbitals                          0
      Active orbitals                            6
      RAS1 orbitals                              0
      RAS2 orbitals                              6
      RAS3 orbitals                              0
      Secondary orbitals                        24
      Deleted orbitals                           0
      Number of basis functions                 30
--
 
++    CI expansion specifications:
      ----------------------------
 
      Number of CSFs                           175
      Number of determinants                   210
      Number of root(s) required                 1
      Root chosen for geometry opt.              1
      CI root used                               1
         
      highest root included in the CI            1
      max. size of the explicit Hamiltonian    175
--
 
++    Optimization specifications:
      ----------------------------
 
      RASSCF algorithm: Conventional
      Maximum number of macro iterations       200
      Maximum number of SX iterations          100
      Threshold for RASSCF energy            0.100E-07
      Threshold for max MO rotation          0.100E+00
      Threshold for max BLB element          0.100E-03
      Level shift parameter                  0.500E+00
      Make Quasi-Newton update
--
 
      The MO-coefficients are taken from the file:
      /home/grierjones/DDCASPT2/hydrogen_comps/H6_chain/H6_0.79/H6_0.79.RasOrb                                                        
      Title: RASSCF average (pseudo-natural) orbitals                                      
 
      Total molecular charge    0.00
 
      ************************************************************************************************************************
      *                                                                                                                      *
      *                                            Wave function control section                                             *
      *                                                                                                                      *
      ************************************************************************************************************************
 
 
                                         RASSCF iterations: Energy and convergence statistics
                                         ----------------------------------------------------
 
      Iter CI   SX   CI       RASSCF       Energy    max ROT     max BLB   max BLB  Level Ln srch  Step   QN   Walltime
          iter iter root      energy       change     param      element    value   shift minimum  type update hh:mm:ss
 Nr of preliminary CI iterations:   1
        1   1    5    1    -3.28675865    0.00E+00   0.77E-02    1   7 1 -0.15E-01*  0.00   0.00    SX    NO    0:00:00
        2   1    4    1    -3.28709716   -0.34E-03*  0.25E-02    1   7 1 -0.31E-02*  0.00   0.00    SX    NO    0:00:00
        3   1    4    1    -3.28710978   -0.13E-04* -0.13E-02    1   7 1 -0.65E-03*  0.00   0.00    SX    NO    0:00:00
        4   1    4    1    -3.28711088   -0.11E-05* -0.89E-03    2  14 1  0.14E-03*  0.00   0.00    SX    NO    0:00:00
        5   1    3    1    -3.28711112   -0.24E-06* -0.11E-02    2  14 1  0.57E-04   0.00   2.20    LS   YES    0:00:00
        6   1    3    1    -3.28711122   -0.10E-06* -0.26E-03    1   7 1  0.96E-04   0.00   1.00    QN   YES    0:00:00
        7   1    3    1    -3.28711123   -0.15E-07* -0.15E-03    1   7 1  0.28E-04   0.00   1.49    QN   YES    0:00:00
        8   1    2    1    -3.28711124   -0.20E-08   0.91E-05    1   7 1 -0.19E-05   0.00   1.03    QN   YES    0:00:00
      Convergence after  8 iterations
 
  Dmat in MO in SXCTL bf call to SXHAM                                                                                    
  mat. size =     6x    6
 
        1.9863952395796363
       -0.0000000000000015      1.9744682509472729
       -0.0002016082071622      0.0000000000000032      1.9414739252595683
       -0.0000000000002521      0.0022021875362539      0.0000000000001444      0.0662991493730491
        0.0000000000000004      0.0000809846239240      0.0000000000019835     -0.0001314041313955      0.0089418339277457
        0.0009856373909224     -0.0000000000000693      0.0017156548964150      0.0000000000000139      0.0000000000000033
        0.0224216009127285
        9   1    2    1    -3.28711124   -0.29E-10   0.91E-05    1   7 1 -0.92E-06   0.00   1.03    QN   YES    0:00:00
 
      ************************************************************************************************************************
                                                      Wave function printout:
                       occupation of active orbitals, and spin coupling of open shells (u,d: Spin up or down)
      ************************************************************************************************************************
 
      Note: transformation to natural orbitals
      has been made, which may change the order of the CSFs.
 
      printout of CI-coefficients larger than  0.05 for root  1
      energy=      -3.287111
      conf/sym  111111     Coeff  Weight
             1  222000  -0.97552 0.95163
            11  220200   0.14001 0.01960
            20  2udu0d   0.08023 0.00644
            24  u2dud0  -0.05732 0.00329
            29  202200   0.05581 0.00311
            48  2uud0d  -0.05951 0.00354
 
      Natural orbitals and occupation numbers for root  1
      sym 1:   1.986397   1.974471   1.941475   0.066297   0.008942   0.022420
 
      ************************************************************************************************************************
      *                                                                                                                      *
      *                                                    Final results                                                     *
      *                                                                                                                      *
      ************************************************************************************************************************
 
 
++    Wave function specifications:
      -----------------------------
 
      Number of closed shell electrons           0
      Number of electrons in active shells       6
      Max number of holes in RAS1 space          0
      Max nr of electrons in RAS3 space          0
      Number of inactive orbitals                0
      Number of active orbitals                  6
      Number of secondary orbitals              24
      Spin quantum number                      0.0
      State symmetry                             1
--
 
++    Orbital specifications:
      -----------------------
 
      Symmetry species                           1
                                                 a
      Frozen orbitals                            0
      Inactive orbitals                          0
      Active orbitals                            6
      RAS1 orbitals                              0
      RAS2 orbitals                              6
      RAS3 orbitals                              0
      Secondary orbitals                        24
      Deleted orbitals                           0
      Number of basis functions                 30
--
 
++    CI expansion specifications:
      ----------------------------
 
      Number of CSFs                           175
      Number of determinants                   210
      Number of root(s) required                 1
      CI root used                               1
      highest root included in the CI            1
      Root passed to geometry opt.               1
--
 
++    Final optimization conditions:
      ------------------------------
 
      Average CI energy                              -3.28711124
      RASSCF energy for state  1                     -3.28711124
      Super-CI energy                                -0.00000000
      RASSCF energy change                           -0.00000000
      Max change in MO coefficients              -0.882E-04
      Max non-diagonal density matrix element     0.909E-05
      Maximum BLB matrix element                 -0.916E-06
      (orbital pair   1,   7 in symmetry   1)
      Norm of electronic gradient            0.142E-05
--
 
 
      Final state energy(ies):
      ------------------------
 
::    RASSCF root number  1 Total energy:     -3.28711124
 
++    Molecular orbitals:
      -------------------
 
      Pseudonatural active orbitals and approximate occupation numbers
 
 
 
 
      Molecular orbitals for symmetry species 1: a  
 
 
      Orbital                1         2         3         4         5         6         7         8         9        10
      Energy            0.0000    0.0000    0.0000    0.0000    0.0000    0.0000    0.1968    0.3072    0.5013    0.5369
      Occ. No.          1.9864    1.9745    1.9415    0.0663    0.0089    0.0224    0.0000    0.0000    0.0000    0.0000
 
    1 H1     1s         0.2355   -0.3833    0.4660   -0.5325    0.8587   -0.7822   -0.1809    0.5263   -1.6962   -0.0000
    2 H1     2s         0.0440   -0.0216    0.0286    0.1190    0.1302    0.0153    0.1805    0.9009   -1.7925   -0.0000
    3 H1     2px        0.0000    0.0000   -0.0000    0.0000   -0.0000    0.0000    0.0000    0.0000   -0.0000    0.0932
    4 H1     2py        0.0000   -0.0000   -0.0000    0.0000   -0.0000    0.0000    0.0000    0.0000    0.0000   -0.1522
    5 H1     2pz        0.0214   -0.0283    0.0053    0.0336   -0.0502    0.0526    0.0170    0.1646   -0.2795   -0.0000
    6 H2     1s         0.2005   -0.2946    0.3134    0.0980   -1.8697    1.0601    0.0041   -0.4566    1.5285    0.0000
    7 H2     2s        -0.0901    0.1179    0.0753   -0.2161   -0.5268    0.0150    0.2488   -0.1840    1.3410    0.0000
    8 H2     2px        0.0000   -0.0000   -0.0000   -0.0000   -0.0000    0.0000    0.0000    0.0000   -0.0000    0.1370
    9 H2     2py       -0.0000    0.0000    0.0000    0.0000    0.0000    0.0000    0.0000    0.0000    0.0000   -0.2237
   10 H2     2pz        0.0119    0.0030   -0.0469    0.0724    0.0789    0.0023    0.0124    0.2045   -0.3479   -0.0000
   11 H3     1s         0.3273   -0.1442   -0.5038    0.8106    2.5633   -0.4711   -0.0616    0.5088   -0.0425   -0.0000
   12 H3     2s        -0.0552    0.0274   -0.0721    0.1332    0.8336   -0.0262    0.2415    0.5308    0.2608    0.0000
   13 H3     2px       -0.0000    0.0000    0.0000    0.0000    0.0000   -0.0000    0.0000    0.0000   -0.0000    0.1691
   14 H3     2py        0.0000   -0.0000    0.0000   -0.0000   -0.0000   -0.0000   -0.0000    0.0000    0.0000   -0.2762
   15 H3     2pz        0.0031    0.0299   -0.0316   -0.0385   -0.0011   -0.1106   -0.0122    0.1966   -0.0314   -0.0000
   16 H4     1s         0.3273    0.1442   -0.5038   -0.8106   -2.5633   -0.4711   -0.0616   -0.5088   -0.0425    0.0000
   17 H4     2s        -0.0552   -0.0274   -0.0721   -0.1332   -0.8336   -0.0262    0.2415   -0.5308    0.2608    0.0000
   18 H4     2px        0.0000   -0.0000   -0.0000    0.0000   -0.0000    0.0000   -0.0000    0.0000   -0.0000    0.1691
   19 H4     2py       -0.0000    0.0000   -0.0000    0.0000   -0.0000    0.0000   -0.0000    0.0000    0.0000   -0.2762
   20 H4     2pz       -0.0031    0.0299    0.0316   -0.0385   -0.0011    0.1106    0.0122    0.1966    0.0314    0.0000
   21 H5     1s         0.2005    0.2946    0.3134   -0.0980    1.8697    1.0601    0.0041    0.4566    1.5285    0.0000
   22 H5     2s        -0.0901   -0.1179    0.0753    0.2161    0.5268    0.0150    0.2488    0.1840    1.3410    0.0000
   23 H5     2px       -0.0000    0.0000   -0.0000    0.0000   -0.0000   -0.0000   -0.0000    0.0000   -0.0000    0.1370
   24 H5     2py        0.0000   -0.0000   -0.0000    0.0000   -0.0000   -0.0000   -0.0000    0.0000    0.0000   -0.2237
   25 H5     2pz       -0.0119    0.0030    0.0469    0.0724    0.0789   -0.0023   -0.0124    0.2045    0.3479    0.0000
   26 H6     1s         0.2355    0.3833    0.4660    0.5325   -0.8587   -0.7822   -0.1809   -0.5263   -1.6962   -0.0000
   27 H6     2s         0.0440    0.0216    0.0286   -0.1190   -0.1302    0.0153    0.1805   -0.9009   -1.7925   -0.0000
   28 H6     2px        0.0000   -0.0000    0.0000   -0.0000   -0.0000   -0.0000   -0.0000    0.0000   -0.0000    0.0932
   29 H6     2py       -0.0000    0.0000    0.0000    0.0000   -0.0000   -0.0000   -0.0000    0.0000    0.0000   -0.1522
   30 H6     2pz       -0.0214   -0.0283   -0.0053    0.0336   -0.0502   -0.0526   -0.0170    0.1646    0.2795    0.0000
 
 
      Orbital               11        12        13        14        15        16        17        18        19        20
      Energy            0.5369    0.7298    0.7298    0.8667    1.0461    1.0461    1.3715    1.5184    1.5184    1.9952
      Occ. No.          0.0000    0.0000    0.0000    0.0000    0.0000    0.0000    0.0000    0.0000    0.0000    0.0000
 
    1 H1     1s         0.0000   -0.0000    0.0000   -3.1314   -0.0000   -0.0000    2.8125    0.0000    0.0000    2.0272
    2 H1     2s        -0.0000   -0.0000    0.0000   -2.5732   -0.0000   -0.0000    2.0346    0.0000    0.0000    1.4554
    3 H1     2px        0.1522   -0.3619   -0.1001   -0.0000    0.5555    0.0917   -0.0000   -0.6908    0.0510   -0.0000
    4 H1     2py        0.0932    0.1001   -0.3619   -0.0000   -0.0917    0.5555    0.0000   -0.0510   -0.6908    0.0000
    5 H1     2pz       -0.0000    0.0000    0.0000   -0.3511   -0.0000   -0.0000    0.0498    0.0000    0.0000   -0.3484
    6 H2     1s        -0.0000    0.0000    0.0000    5.0131    0.0000    0.0000   -6.8018   -0.0000   -0.0000   -9.1646
    7 H2     2s        -0.0000    0.0000    0.0000    4.5110    0.0000    0.0000   -5.8536   -0.0000   -0.0000   -7.3501
    8 H2     2px        0.2237   -0.3504   -0.0969    0.0000    0.1344    0.0222   -0.0000    0.4467   -0.0330   -0.0000
    9 H2     2py        0.1370    0.0969   -0.3504    0.0000   -0.0222    0.1344   -0.0000    0.0330    0.4467   -0.0000
   10 H2     2pz       -0.0000    0.0000    0.0000   -0.1370   -0.0000   -0.0000   -0.1735    0.0000    0.0000   -0.5251
   11 H3     1s         0.0000   -0.0000   -0.0000   -2.3835    0.0000   -0.0000    4.2204    0.0000    0.0000   17.1899
   12 H3     2s         0.0000   -0.0000   -0.0000   -1.6275    0.0000   -0.0000    3.7577    0.0000    0.0000   13.9603
   13 H3     2px        0.2762   -0.1536   -0.0425    0.0000   -0.4168   -0.0688   -0.0000    0.5415   -0.0400    0.0000
   14 H3     2py        0.1691    0.0425   -0.1536    0.0000    0.0688   -0.4168   -0.0000    0.0400    0.5415    0.0000
   15 H3     2pz       -0.0000    0.0000   -0.0000    0.2832    0.0000    0.0000   -0.5474   -0.0000   -0.0000    0.1064
   16 H4     1s        -0.0000    0.0000   -0.0000    2.3835   -0.0000    0.0000    4.2204    0.0000    0.0000  -17.1899
   17 H4     2s        -0.0000    0.0000   -0.0000    1.6275    0.0000    0.0000    3.7577    0.0000    0.0000  -13.9603
   18 H4     2px        0.2762    0.1536    0.0425    0.0000   -0.4168   -0.0688    0.0000   -0.5415    0.0400    0.0000
   19 H4     2py        0.1691   -0.0425    0.1536    0.0000    0.0688   -0.4168    0.0000   -0.0400   -0.5415   -0.0000
   20 H4     2pz       -0.0000    0.0000   -0.0000    0.2832    0.0000    0.0000    0.5474    0.0000    0.0000    0.1064
   21 H5     1s         0.0000   -0.0000    0.0000   -5.0131   -0.0000   -0.0000   -6.8018   -0.0000   -0.0000    9.1646
   22 H5     2s         0.0000   -0.0000    0.0000   -4.5110   -0.0000   -0.0000   -5.8536   -0.0000   -0.0000    7.3501
   23 H5     2px        0.2237    0.3504    0.0969   -0.0000    0.1344    0.0222    0.0000   -0.4467    0.0330   -0.0000
   24 H5     2py        0.1370   -0.0969    0.3504    0.0000   -0.0222    0.1344    0.0000   -0.0330   -0.4467   -0.0000
   25 H5     2pz        0.0000   -0.0000   -0.0000   -0.1370   -0.0000   -0.0000    0.1735    0.0000    0.0000   -0.5251
   26 H6     1s        -0.0000    0.0000   -0.0000    3.1314    0.0000    0.0000    2.8125    0.0000    0.0000   -2.0272
   27 H6     2s        -0.0000    0.0000    0.0000    2.5732    0.0000    0.0000    2.0346    0.0000    0.0000   -1.4554
   28 H6     2px        0.1522    0.3619    0.1001   -0.0000    0.5555    0.0917   -0.0000    0.6908   -0.0510    0.0000
   29 H6     2py        0.0932   -0.1001    0.3619    0.0000   -0.0917    0.5555   -0.0000    0.0510    0.6908    0.0000
   30 H6     2pz        0.0000   -0.0000   -0.0000   -0.3511   -0.0000   -0.0000   -0.0498    0.0000   -0.0000   -0.3484
 
 
      Orbital               21        22        23        24        25        26        27        28        29        30
      Energy            2.0092    2.1891    2.1891    2.5041    3.0618    3.0618    3.3896    4.3950    5.4822    6.8423
      Occ. No.          0.0000    0.0000    0.0000    0.0000    0.0000    0.0000    0.0000    0.0000    0.0000    0.0000
 
    1 H1     1s        -2.3011    0.0000   -0.0000    4.1823   -0.0000   -0.0000   -2.7980    2.8549   -2.1245    1.3496
    2 H1     2s        -1.6852    0.0000   -0.0000    2.6125   -0.0000   -0.0000   -1.1014    0.7290   -0.1567   -0.2506
    3 H1     2px        0.0000   -0.4609   -0.5295    0.0000   -0.4912    0.0071   -0.0000    0.0000   -0.0000   -0.0000
    4 H1     2py        0.0000   -0.5295    0.4609    0.0000   -0.0071   -0.4912    0.0000    0.0000    0.0000   -0.0000
    5 H1     2pz       -1.0613   -0.0000   -0.0000    1.3612   -0.0000   -0.0000   -1.1935    1.1202   -0.8476    0.5236
    6 H2     1s         4.2493   -0.0000    0.0000  -10.8232    0.0000    0.0000    4.4633   -1.9175   -1.7125    3.2504
    7 H2     2s         3.1950   -0.0000    0.0000   -7.5392    0.0000    0.0000    1.8981   -0.6541   -0.7401    0.6657
    8 H2     2px       -0.0000    0.7069    0.8122   -0.0000    1.0844   -0.0157   -0.0000   -0.0000   -0.0000    0.0000
    9 H2     2py        0.0000    0.8122   -0.7069   -0.0000    0.0157    1.0844   -0.0000    0.0000   -0.0000   -0.0000
   10 H2     2pz        0.1973   -0.0000    0.0000   -0.2415   -0.0000   -0.0000   -0.7738    1.9781   -2.7498    2.6613
   11 H3     1s        -1.8538    0.0000   -0.0000   15.0280   -0.0000    0.0000   -1.5788   -3.0163    3.8844    1.1765
   12 H3     2s        -1.6449    0.0000   -0.0000   11.0386   -0.0000    0.0000   -0.8938   -0.6661    0.8244    0.1341
   13 H3     2px        0.0000   -0.3375   -0.3878   -0.0000   -1.4410    0.0208    0.0000    0.0000    0.0000   -0.0000
   14 H3     2py       -0.0000   -0.3878    0.3375   -0.0000   -0.0208   -1.4410    0.0000   -0.0000    0.0000    0.0000
   15 H3     2pz       -0.2810    0.0000   -0.0000    0.4602    0.0000    0.0000    0.9115   -0.5801   -1.6814    4.4860
   16 H4     1s        -1.8538   -0.0000    0.0000  -15.0280    0.0000   -0.0000   -1.5788    3.0163    3.8844   -1.1765
   17 H4     2s        -1.6449   -0.0000    0.0000  -11.0386    0.0000   -0.0000   -0.8938    0.6661    0.8244   -0.1341
   18 H4     2px        0.0000   -0.3375   -0.3878    0.0000    1.4410   -0.0208   -0.0000   -0.0000   -0.0000    0.0000
   19 H4     2py       -0.0000   -0.3878    0.3375    0.0000    0.0208    1.4410   -0.0000    0.0000   -0.0000   -0.0000
   20 H4     2pz        0.2810    0.0000    0.0000    0.4602   -0.0000   -0.0000   -0.9115   -0.5801    1.6814    4.4860
   21 H5     1s         4.2493    0.0000   -0.0000   10.8232    0.0000    0.0000    4.4633    1.9175   -1.7125   -3.2504
   22 H5     2s         3.1950    0.0000   -0.0000    7.5392   -0.0000    0.0000    1.8981    0.6541   -0.7401   -0.6657
   23 H5     2px       -0.0000    0.7069    0.8122   -0.0000   -1.0844    0.0157    0.0000    0.0000    0.0000    0.0000
   24 H5     2py        0.0000    0.8122   -0.7069   -0.0000   -0.0157   -1.0844    0.0000    0.0000    0.0000    0.0000
   25 H5     2pz       -0.1973   -0.0000    0.0000   -0.2415    0.0000    0.0000    0.7738    1.9781    2.7498    2.6613
   26 H6     1s        -2.3011   -0.0000    0.0000   -4.1823   -0.0000   -0.0000   -2.7980   -2.8549   -2.1245   -1.3496
   27 H6     2s        -1.6852   -0.0000    0.0000   -2.6125   -0.0000   -0.0000   -1.1014   -0.7290   -0.1567    0.2506
   28 H6     2px        0.0000   -0.4609   -0.5295    0.0000    0.4912   -0.0071   -0.0000   -0.0000    0.0000    0.0000
   29 H6     2py       -0.0000   -0.5295    0.4609    0.0000    0.0071    0.4912   -0.0000    0.0000    0.0000    0.0000
   30 H6     2pz        1.0613    0.0000    0.0000    1.3612    0.0000    0.0000    1.1935    1.1202    0.8476    0.5236
--
 
      Von Neumann Entropy (Root  1) =  0.34012
 

      Mulliken population analysis for root number:  1
      -----------------------------------------------
 
 
++    Molecular charges:
      ------------------
 
      Mulliken charges per centre and basis function type
      ---------------------------------------------------
 
                H1      H2      H3      H4      H5      H6    
      1s       1.1387  0.7622  0.9889  0.9889  0.7622  1.1387
      2s       0.0115  0.0078 -0.0689 -0.0689  0.0078  0.0115
      2px      0.0000  0.0000 -0.0000 -0.0000  0.0000  0.0000
      2pz      0.0279  0.0683  0.0637  0.0637  0.0683  0.0279
      2py      0.0000 -0.0000  0.0000  0.0000 -0.0000  0.0000
      Total    1.1780  0.8383  0.9837  0.9837  0.8383  1.1780
 
      N-E     -0.1780  0.1617  0.0163  0.0163  0.1617 -0.1780
 
      Total electronic charge=    6.000000
 
      Total            charge=   -0.000000
--
 
 

      Expectation values of various properties for root number:  1
      -----------------------------------------------------------
 
 
++    Molecular properties:
      ---------------------
 
      Charge (e):
                      =   -0.0000
      Dipole Moment (Debye):
      Origin of the operator (Ang)=    0.0000    0.0000    0.0000
                   X= -5.2047E-13               Y= -3.9926E-14               Z=  1.7247E-12           Total=  1.8020E-12
      Quadrupole Moment (Debye*Ang):
      Origin of the operator (Ang)=    0.0000    0.0000    2.0455
                  XX= -5.9791E+00              XY= -9.0838E-27              XZ= -1.5166E-12              YY= -5.9791E+00
                  YZ=  6.2492E-14              ZZ= -8.0322E+00
      In traceless form (Debye*Ang)
                  XX=  1.0265E+00              XY= -1.3626E-26              XZ= -2.2749E-12              YY=  1.0265E+00
                  YZ=  9.3738E-14              ZZ= -2.0530E+00
--
 

      LoProp population analysis for root number:  1
      -----------------------------------------------
 
 
++    LoProp analysis:
      ----------------
 
 
 
  Input file to MOLDEN was generated!
 
 
++    Static properties:
      ------------------
 
 
      LoProp Charges per center
 

                   H1       H2       H3       H4       H5       H6    
      Nuclear      1.0000   1.0000   1.0000   1.0000   1.0000   1.0000
      Electronic  -1.0523  -0.9709  -0.9769  -0.9769  -0.9709  -1.0523
 
      Total       -0.0523   0.0291   0.0231   0.0231   0.0291  -0.0523
--
 
 
      Natural Bond Order analysis for root number:  1
 
++    Natural Bond Order analysis
      ---------------------------
      Based on LoProp computed density
      -------------------------------------------------------------------------------------
      Atom A       Atom B       Bond Order | Atom A       Atom B       Bond Order
        H1           H2             0.945  |   H5           H6             0.945
        H3           H4             0.919  |
      -------------------------------------------------------------------------------------
      NBO located      5.616 electrons involved in    3 bonds.
      The remaining    0.384 electrons are to be considered as diffuse
--
 
--
 
 
  Input file to MOLDEN was generated!
 
      Average orbitals are written to the RASORB file
      Natural orbitals for root   1 are written to the RASORB.1 file
      Spin density orbitals for root   1 are written to the SPDORB.1 file
 
--- Stop Module: rasscf at Tue Nov 12 16:12:50 2024 /rc=_RC_ALL_IS_WELL_ ---
*** files: H6_0.82.LprOrb H6_0.82.rasscf.molden H6_0.82.LoProp.molden H6_0.82.RasOrb H6_0.82.RasOrb.1 H6_0.82.rasscf.h5 H6_0.82.SpdOrb.1 xmldump
    saved to directory /home/grierjones/DDCASPT2/hydrogen_comps/H6_chain/H6_0.82

>>> COPY /tmp/H6_0.82/H6_0.82.rasscf.h5 /home/grierjones/DDCASPT2/hydrogen_comps/H6_chain/H6_0.82/

>>> COPY /tmp/H6_0.82/GMJ_Fock_MO.csv /home/grierjones/DDCASPT2/hydrogen_comps/H6_chain/H6_0.82/H6_0.82.GMJ_Fock_MO.csv

>>> COPY /tmp/H6_0.82/GMJ_PT2_Fock_MO.csv /home/grierjones/DDCASPT2/hydrogen_comps/H6_chain/H6_0.82/H6_0.82.GMJ_PT2_Fock_MO.csv

*** symbolic link created: INPORB -> H6_0.82.RasOrb
--- Start Module: motra at Tue Nov 12 16:12:50 2024 ---
 
()()()()()()()()()()()()()()()()()()()()()()()()()()()()()()()()()()()()()()()()()()()()()()()()()()

                                               &MOTRA

                                   only a single process is used
                       available to each process: 2.0 GB of memory, 1 thread?
()()()()()()()()()()()()()()()()()()()()()()()()()()()()()()()()()()()()()()()()()()()()()()()()()()
 
 
      *** WARNING: Default frozen orbitals is overwritten by user input.
      *** Default values:   0
 
      Header of the integral files:
      
       Integrals generated by seward 4.2.0  , Tue Nov 12 16:12:49 2024
 
 
      Header of MO coefficients source file:
      * RASSCF average (pseudo-natural) orbitals                                      
 
 
      Cartesian coordinates in Angstrom:
      -----------------------------------------------------
      No.  Label        X            Y            Z        
      -----------------------------------------------------
       1   H1         0.00000000   0.00000000   0.00000000
       2   H2         0.00000000   0.00000000   0.81818200
       3   H3         0.00000000   0.00000000   1.63636400
       4   H4         0.00000000   0.00000000   2.45454500
       5   H5         0.00000000   0.00000000   3.27272700
       6   H6         0.00000000   0.00000000   4.09090900
      -----------------------------------------------------
      Nuclear repulsion energy =    5.62691800
 
      Orbital specifications:
      -----------------------
 
      Symmetry species:              1
      Number of basis functions:    30
      Frozen orbitals:               0
      Deleted orbitals:              0
      Number of orbitals used:      30

       SYMMETRY  BASIS FUNCTIONS       ORBITALS      INTEGRALS   CPU(SEC)  I/O(SEC)
 
        1 1 1 1   30  30  30  30    30  30  30  30      108345       0.00      0.00

       TOTAL CPU TIME(SEC)    0.07TOTAL I/O TIME(SEC)    0.14
 
--- Stop Module: motra at Tue Nov 12 16:12:51 2024 /rc=_RC_ALL_IS_WELL_ ---
*** files: xmldump
    saved to directory /home/grierjones/DDCASPT2/hydrogen_comps/H6_chain/H6_0.82

>>> COPY /tmp/H6_0.82/GMJ_one_int_indx.csv /home/grierjones/DDCASPT2/hydrogen_comps/H6_chain/H6_0.82/H6_0.82.GMJ_one_int_indx.csv

>>> COPY /tmp/H6_0.82/GMJ_one_int.csv /home/grierjones/DDCASPT2/hydrogen_comps/H6_chain/H6_0.82/H6_0.82.GMJ_one_int.csv

>>> COPY /tmp/H6_0.82/GMJ_two_int_indx.csv /home/grierjones/DDCASPT2/hydrogen_comps/H6_chain/H6_0.82/H6_0.82.GMJ_two_int_indx.csv

>>> COPY /tmp/H6_0.82/GMJ_two_int.csv /home/grierjones/DDCASPT2/hydrogen_comps/H6_chain/H6_0.82/H6_0.82.GMJ_two_int.csv

*** symbolic link created: INPORB -> H6_0.82.RasOrb
--- Start Module: caspt2 at Tue Nov 12 16:12:51 2024 ---
 
()()()()()()()()()()()()()()()()()()()()()()()()()()()()()()()()()()()()()()()()()()()()()()()()()()

                                              &CASPT2

                                   only a single process is used
                       available to each process: 2.0 GB of memory, 1 thread?
()()()()()()()()()()()()()()()()()()()()()()()()()()()()()()()()()()()()()()()()()()()()()()()()()()
 
 Cholesky algorithm in CASPT2 =    1
 
 ###############################################################################
 ###############################################################################
 ###                                                                         ###
 ###                                                                         ###
 ###    User changed nr of frozen orbitals.                                  ###
 ###                                                                         ###
 ###                                                                         ###
 ###############################################################################
 ###############################################################################
 
++    Wave function specifications:
      -----------------------------
 
      Number of closed shell electrons           0
      Number of electrons in active shells       6
      Max number of holes in RAS1 space          0
      Max number of electrons in RAS3 space      0
      Number of inactive orbitals                0
      Number of active orbitals                  6
      Number of secondary orbitals              24
      Spin quantum number                      0.0
      State symmetry                             1
      Number of CSFs                           175
      Number of root(s) available                1
      Root passed to geometry opt.               1
      A file JOBMIX will be created.
      This is a CASSCF or RASSCF reference function
--
 
++    Orbital specifications:
      -----------------------
 
      Symmetry species                           1
                                                 a
      Frozen orbitals                            0
      Inactive orbitals                          0
      Active orbitals                            6
      Secondary orbitals                        24
      Deleted orbitals                           0
      Number of basis functions                 30
--
 
      Type of Fock operator: STANDARD
      Type of 0-order Hamiltonian: STANDARD WITH DEFAULT IPEA
        "IP-EA" denominator shift =      0.25
      The input orbitals and the CI vector will be transformed.
 
--------------------------------------------------------------------------------
 Estimated memory requirements:
  POLY3 :                   262414
  RHS:                      285604
  SIGMA :                   275200
  PRPCTL:                        0
 Available workspace:    230396124
 
++ CASPT2 computation for group   1
 
********************************************************************************
 Multi-State initialization phase begins for group   1
--------------------------------------------------------------------------------
********************************************************************************
 Compute H0 matrices for state    1
--------------------------------------------------------------------------------
--------------------------------------------------------------------------------
 H0 matrices have been computed.
 
********************************************************************************
  CASPT2 EQUATION SOLUTION
--------------------------------------------------------------------------------
 
  Total nr of CASPT2 parameters:
   Before reduction:       15624
   After  reduction:       15384
 
 The contributions to the second order correlation energy in atomic units.
-----------------------------------------------------------------------------------------------------------------------------
  IT.      VJTU        VJTI        ATVX        AIVX        VJAI        BVAT        BJAT        BJAI        TOTAL       RNORM  
-----------------------------------------------------------------------------------------------------------------------------
   1     0.000000    0.000000   -0.011236    0.000000    0.000000   -0.037750    0.000000    0.000000   -0.048986    0.004779
   2     0.000000    0.000000   -0.011412    0.000000    0.000000   -0.037825    0.000000    0.000000   -0.049237    0.000737
   3     0.000000    0.000000   -0.011416    0.000000    0.000000   -0.037829    0.000000    0.000000   -0.049245    0.000131
   4     0.000000    0.000000   -0.011411    0.000000    0.000000   -0.037829    0.000000    0.000000   -0.049240    0.000018
   5     0.000000    0.000000   -0.011411    0.000000    0.000000   -0.037829    0.000000    0.000000   -0.049240    0.000003
-------------------------------------------------------------------------------------------------------------------
 
  FINAL CASPT2 RESULT:
 
  Correlation energy /Case, /Symm, and sums:
 VJTU      0.00000000  0.00000000
 VJTIP     0.00000000  0.00000000
 VJTIM     0.00000000  0.00000000
 ATVX     -0.01141109 -0.01141109
 AIVX      0.00000000  0.00000000
 VJAIP     0.00000000  0.00000000
 VJAIM     0.00000000  0.00000000
 BVATP    -0.03494681 -0.03494681
 BVATM    -0.00288238 -0.00288238
 BJATP     0.00000000  0.00000000
 BJATM     0.00000000  0.00000000
 BJAIP     0.00000000  0.00000000
 BJAIM     0.00000000  0.00000000
 Summed:  -0.04924027 -0.04924027
 
      Reference energy:          -3.2871112370
      E2 (Non-variational):      -0.0492402749
      E2 (Variational):          -0.0492402765
      Total energy:              -3.3363515135
      Residual norm:              0.0000005693
      Reference weight:           0.98366
 
      Contributions to the CASPT2 correlation energy
      Active & Virtual Only:         -0.0492402749
      One Inactive Excited:           0.0000000000
      Two Inactive Excited:           0.0000000000
 
 
++ Denominators, etc.
----------------------------------------------------------------------------------------------------
 Report on small energy denominators, large coefficients, and large energy contributions.
CASE  SYMM ACTIVE-MIX  NON-ACTIVE INDICES          DENOMINATOR     RHS VALUE       COEFFICIENT     CONTRIBUTION
--
 
   (Skipping property calculation,
    use PROP keyword to activate)
--
 
  Total CASPT2 energies:
::    CASPT2 Root  1     Total energy:     -3.33635151
 
  A NEW JOBIPH FILE NAMED 'JOBMIX' IS PREPARED.
********************************************************************************
--- Stop Module: caspt2 at Tue Nov 12 16:12:51 2024 /rc=_RC_ALL_IS_WELL_ ---
*** files: xmldump
    saved to directory /home/grierjones/DDCASPT2/hydrogen_comps/H6_chain/H6_0.82

>>> EXPORT i = B

>>> EXPORT j = P

>>> IF (-FILE GMJ_e2_${i}_${j}.csv)
(Skipped)

>>> END FOREACH

>>> EXPORT j = M

>>> IF (-FILE GMJ_e2_${i}_${j}.csv)
(Skipped)

>>> END FOREACH

>>> END FOREACH

>>> EXPORT i = E

>>> EXPORT j = P

>>> IF (-FILE GMJ_e2_${i}_${j}.csv)
(Skipped)

>>> END FOREACH

>>> EXPORT j = M

>>> IF (-FILE GMJ_e2_${i}_${j}.csv)
(Skipped)

>>> END FOREACH

>>> END FOREACH

>>> EXPORT i = F

>>> EXPORT j = P

>>> IF (-FILE GMJ_e2_${i}_${j}.csv)

>>> COPY /tmp/H6_0.82/GMJ_RHS_F_P.csv /home/grierjones/DDCASPT2/hydrogen_comps/H6_chain/H6_0.82/GMJ_RHS_F_P.csv

>>> COPY /tmp/H6_0.82/GMJ_IVECW_F_P.csv /home/grierjones/DDCASPT2/hydrogen_comps/H6_chain/H6_0.82/GMJ_IVECW_F_P.csv

>>> COPY /tmp/H6_0.82/GMJ_IVECX_F_P.csv /home/grierjones/DDCASPT2/hydrogen_comps/H6_chain/H6_0.82/GMJ_IVECX_F_P.csv

>>> COPY /tmp/H6_0.82/GMJ_IVECC2_F_P.csv /home/grierjones/DDCASPT2/hydrogen_comps/H6_chain/H6_0.82/GMJ_IVECC2_F_P.csv

>>> COPY /tmp/H6_0.82/GMJ_e2_F_P.csv /home/grierjones/DDCASPT2/hydrogen_comps/H6_chain/H6_0.82/GMJ_e2_F_P.csv

>>> END FOREACH

>>> EXPORT j = M

>>> IF (-FILE GMJ_e2_${i}_${j}.csv)

>>> COPY /tmp/H6_0.82/GMJ_RHS_F_M.csv /home/grierjones/DDCASPT2/hydrogen_comps/H6_chain/H6_0.82/GMJ_RHS_F_M.csv

>>> COPY /tmp/H6_0.82/GMJ_IVECW_F_M.csv /home/grierjones/DDCASPT2/hydrogen_comps/H6_chain/H6_0.82/GMJ_IVECW_F_M.csv

>>> COPY /tmp/H6_0.82/GMJ_IVECX_F_M.csv /home/grierjones/DDCASPT2/hydrogen_comps/H6_chain/H6_0.82/GMJ_IVECX_F_M.csv

>>> COPY /tmp/H6_0.82/GMJ_IVECC2_F_M.csv /home/grierjones/DDCASPT2/hydrogen_comps/H6_chain/H6_0.82/GMJ_IVECC2_F_M.csv

>>> COPY /tmp/H6_0.82/GMJ_e2_F_M.csv /home/grierjones/DDCASPT2/hydrogen_comps/H6_chain/H6_0.82/GMJ_e2_F_M.csv

>>> END FOREACH

>>> END FOREACH

>>> EXPORT i = G

>>> EXPORT j = P

>>> IF (-FILE GMJ_e2_${i}_${j}.csv)
(Skipped)

>>> END FOREACH

>>> EXPORT j = M

>>> IF (-FILE GMJ_e2_${i}_${j}.csv)
(Skipped)

>>> END FOREACH

>>> END FOREACH

>>> EXPORT i = H

>>> EXPORT j = P

>>> IF (-FILE GMJ_e2_${i}_${j}.csv)
(Skipped)

>>> END FOREACH

>>> EXPORT j = M

>>> IF (-FILE GMJ_e2_${i}_${j}.csv)
(Skipped)

>>> END FOREACH

>>> END FOREACH

>>> EXPORT i = A

>>> IF (-FILE GMJ_e2_$i.csv)
(Skipped)

>>> END FOREACH

>>> EXPORT i = C

>>> IF (-FILE GMJ_e2_$i.csv)

>>> COPY /tmp/H6_0.82/GMJ_RHS_C.csv /home/grierjones/DDCASPT2/hydrogen_comps/H6_chain/H6_0.82/GMJ_RHS_C.csv

>>> COPY /tmp/H6_0.82/GMJ_IVECW_C.csv /home/grierjones/DDCASPT2/hydrogen_comps/H6_chain/H6_0.82/GMJ_IVECW_C.csv

>>> COPY /tmp/H6_0.82/GMJ_IVECX_C.csv /home/grierjones/DDCASPT2/hydrogen_comps/H6_chain/H6_0.82/GMJ_IVECX_C.csv

>>> COPY /tmp/H6_0.82/GMJ_IVECC2_C.csv /home/grierjones/DDCASPT2/hydrogen_comps/H6_chain/H6_0.82/GMJ_IVECC2_C.csv

>>> COPY /tmp/H6_0.82/GMJ_e2_C.csv /home/grierjones/DDCASPT2/hydrogen_comps/H6_chain/H6_0.82/GMJ_e2_C.csv

>>> END FOREACH

>>> EXPORT i = D

>>> IF (-FILE GMJ_e2_$i.csv)
(Skipped)

>>> END FOREACH

.########################.
.# Non-zero return code #.
.########################.

    Timing: Wall=1.76 User=1.13 System=0.62
***************************************
*** WorkDir at /tmp/H6_0.82 cleaned ***
***************************************
