   This run of MOLCAS is using the pymolcas driver

                             OPE
                             OPE          NMOL  CASOP  ENMOLC A   SO
                 OPE        NMOLC        AS  OP EN  MO LC     AS  OP
                OPENM       OL CA        SO  PE NM  OL CA     SOP EN
                OP EN      MO   LC       AS  OP ENMOL  CASO   PENMOL
                OP  EN     MO   LC       AS  OP EN     MO     LC ASO
               OP   E  NMOL  C  AS       OP  EN MO     LC     AS  OP
               OP  E   NMO   LC AS        OPEN  MO     LCASOP EN   M
               O  PEN   MO  LCA  SO
            OPE   NMO   L   CAS    OP
        OPENMOL  CASOP     ENMOL   CASOPE
     OPENMOLCA   SOPENMOLCASOPEN   MOLCASOPE
    OPENMOLCAS   OP           EN   MOL    CAS
    OPENMOLCAS       OP  ENM        O     LCA
    OPENMOLCAS    OPEN  MOLCASO     P  E  NMO
    OPENMOLCAS     OP               E  N  MOL
    OPENMOLCA   SO           PENM   O  L  CAS    OPEN    MO    LCAS
    OPENMOLCA   SOP           ENM   O  L  CAS   OP  EN  MOLC  AS   O
    OPENMOLCA   SOPE           NM      O  LCA   S      OP  EN MO
    OPENMOLC                AS         O  PEN   M      OL  CA  SOPE
    OPENMO        LCASOPE  NMOL        C  ASO   P      ENMOLC     AS
    OPE     NMO      LCA  SO     P     E   NM   OL  CA SO  PE N   MO
          OPENMOLCA            SOPE   NMO        LCAS  O    P  ENMO
     OPENMOLCASOPENMOLCASOPENMOLCASOPENMOLCA
        OPENMOLCASOPENMOLCASOPENMOLCASOPE
            OPENMOLCASOPENMOLCASOPENM
               OPENMOLCASOPENMOLCA        version: ea724fe96-dirty
                   OPENMOLCASO
                       OPE                tag:

 OpenMolcas is free software; you can redistribute it and/or modify it
 under the terms of the GNU Lesser General Public License version 2.1.
 OpenMolcas is distributed in the hope that it will be useful, but it
 is provided "as is" and without any express or implied warranties.
 For more details see the full text of the license in the file
 LICENSE or in <http://www.gnu.org/licenses/>.

                 Copyright (C) The OpenMolcas Authors
           For the author list and the recommended citation,
                   consult the file CONTRIBUTORS.md

           *************************************************
           * pymolcas version py2.28                       *
           *   build c4a6d18ded8cb6cad61d2372a9abd97c      *
           *   (after the EMIL interpreter by V. Veryazov) *
           *************************************************

configuration info
------------------
C Compiler ID: Intel
C flags: -std=gnu99
Fortran Compiler ID: Intel
Fortran flags: -fpp -i8 -r8 -heap-arrays
Definitions: _MOLCAS_;_I8_;_LINUX_
Parallel: OFF (GA=OFF)


   -------------------------------------------------------------------------------
  |
  |              Project: 6.24
  |       Submitted from: /home/grierjones/DDCASPT2/iron_oxo_DDCASPT2/cluster/6.24
  |         Scratch area: /tmp/6.24
  |      Save outputs to: /home/grierjones/DDCASPT2/iron_oxo_DDCASPT2/cluster/6.24
  |               Molcas: /home/grierjones/Test/build
  |
  | Scratch area is empty
  |
  |       MOLCAS_DRIVER = /usr/local/pymolcas
  | MOLCAS_KEEP_WORKDIR = NO
  |  MOLCAS_NEW_WORKDIR = YES
  |       MOLCAS_NPROCS = 1
  |        MOLCAS_PRINT = NORMAL
  |       MOLCAS_SOURCE = /home/grierjones/Test/build
  |    MOLCAS_STRUCTURE = 0
  |
   -------------------------------------------------------------------------------

++ ---------   Input file   ---------

&GATEWAY
coord=6.24.xyz
Basis = ANO-RCC-VDZP
Group = nosymm
Expert
End of Input

&SEWARD
End of Input

&SCF
UHF
charge
2
spin
5

>>> COPY $WorkDir/6.24.scf.h5 $CurrDir/

&RASSCF
Title= RASSCF
FileOrb
/home/grierjones/DDCASPT2/iron_oxo_DDCASPT2/cluster/6.23/6.23.RasOrb
NACTEL
10 0 0
RAS2
14
Symmetry
1
Spin
5
charge
2
orblisting
all
ITERation
300 200

>>> COPY $WorkDir/6.24.rasscf.h5 $CurrDir/

>>> COPY $WorkDir/GMJ_Fock_MO.csv $CurrDir/6.24.GMJ_Fock_MO.csv

>>> COPY $WorkDir/GMJ_PT2_Fock_MO.csv $CurrDir/6.24.GMJ_PT2_Fock_MO.csv

&MOTRA
Frozen=0
LUMORB

>>> COPY $WorkDir/GMJ_one_int_indx.csv $CurrDir/6.24.GMJ_one_int_indx.csv

>>> COPY $WorkDir/GMJ_one_int.csv $CurrDir/6.24.GMJ_one_int.csv

>>> COPY $WorkDir/GMJ_two_int_indx.csv $CurrDir/6.24.GMJ_two_int_indx.csv

>>> COPY $WorkDir/GMJ_two_int.csv $CurrDir/6.24.GMJ_two_int.csv

&CASPT2
Frozen
0
MAXITER
50

>>> FOREACH i IN (B,E,F,G,H)

  >>> FOREACH j IN (P,M)

    >>> IF (-FILE GMJ_e2_${i}_${j}.csv)

      >>> COPY $WorkDir/GMJ_RHS_${i}_${j}.csv $CurrDir/GMJ_RHS_${i}_${j}.csv

      >>> COPY $WorkDir/GMJ_IVECW_${i}_${j}.csv $CurrDir/GMJ_IVECW_${i}_${j}.csv

      >>> COPY $WorkDir/GMJ_IVECX_${i}_${j}.csv $CurrDir/GMJ_IVECX_${i}_${j}.csv

      >>> COPY $WorkDir/GMJ_IVECC2_${i}_${j}.csv $CurrDir/GMJ_IVECC2_${i}_${j}.csv

      >>> COPY $WorkDir/GMJ_e2_${i}_${j}.csv $CurrDir/GMJ_e2_${i}_${j}.csv

    >>> END IF

  >>> END FOREACH

>>> END FOREACH

>>> FOREACH i IN (A,C,D)

  >>> IF (-FILE GMJ_e2_$i.csv)

    >>> COPY $WorkDir/GMJ_RHS_$i.csv $CurrDir/GMJ_RHS_$i.csv

    >>> COPY $WorkDir/GMJ_IVECW_$i.csv $CurrDir/GMJ_IVECW_$i.csv

    >>> COPY $WorkDir/GMJ_IVECX_$i.csv $CurrDir/GMJ_IVECX_$i.csv

    >>> COPY $WorkDir/GMJ_IVECC2_$i.csv $CurrDir/GMJ_IVECC2_$i.csv

    >>> COPY $WorkDir/GMJ_e2_$i.csv $CurrDir/GMJ_e2_$i.csv

  >>> END IF

>>> END FOREACH

-- ----------------------------------

--- Start Module: gateway at Sun Dec 22 16:44:18 2024 ---
 
()()()()()()()()()()()()()()()()()()()()()()()()()()()()()()()()()()()()()()()()()()()()()()()()()()

                                              &GATEWAY

                                   only a single process is used
                       available to each process: 2.0 GB of memory, 1 thread?
()()()()()()()()()()()()()()()()()()()()()()()()()()()()()()()()()()()()()()()()()()()()()()()()()()
 
 ###############################################################################
 ###############################################################################
 ###                                                                         ###
 ###                                                                         ###
 ###                                                                         ###
 ###    WARNING: EXPERT option is ON!                                        ###
 ###                                                                         ###
 ###                                                                         ###
 ###############################################################################
 ###############################################################################
 
++    Symmetry information:
      ---------------------
 
                    Character Table for C1 
 
                             E  
                    a        1  x, y, xy, Rz, z, xz, Ry, yz, Rx, I
--
 
 
++    Basis set information:
      ----------------------
 
 
      Basis set label: O.ANO-RCC...3S2P1D.
 
      Electronic valence basis set:
      ------------------
      Associated Effective Charge   8.000000 au
      Associated Actual Charge      8.000000 au
      Nuclear Model: Point charge
 
      Shell  nPrim  nBasis  Cartesian Spherical Contaminant
         s      14       3        X                  
         p       9       2        X                  
         d       4       1                 X         
 
 
      Basis set label: FE.ANO-RCC...5S4P2D1F.
 
      Electronic valence basis set:
      ------------------
      Associated Effective Charge  26.000000 au
      Associated Actual Charge     26.000000 au
      Nuclear Model: Point charge
 
      Shell  nPrim  nBasis  Cartesian Spherical Contaminant
         s      21       5        X                  
         p      15       4        X                  
         d      10       2                 X         
         f       6       1                 X         
--
 
 
++    Molecular structure info:
      -------------------------
 
                    ************************************************ 
                    **** Cartesian Coordinates / Bohr, Angstrom **** 
                    ************************************************ 
 
     Center  Label                x              y              z                     x              y              z
        1      O1               0.000000       0.000000       7.408558              0.000000       0.000000       3.920440
        2      FE2              0.000000       0.000000      -4.384996              0.000000       0.000000      -2.320440
--
 
 
            Nuclear Potential Energy             17.63675312 au
 
 ###############################################################################
 ###############################################################################
 ###                                                                         ###
 ###                                                                         ###
 ###    There were warnings during the execution                             ###
 ###    Please, check the output with care!                                  ###
 ###                                                                         ###
 ###                                                                         ###
 ###############################################################################
 ###############################################################################
--- Stop Module: gateway at Sun Dec 22 16:44:18 2024 /rc=_RC_ALL_IS_WELL_ ---
*** files: xmldump
    saved to directory /home/grierjones/DDCASPT2/iron_oxo_DDCASPT2/cluster/6.24

--- Start Module: seward at Sun Dec 22 16:44:18 2024 ---
 
()()()()()()()()()()()()()()()()()()()()()()()()()()()()()()()()()()()()()()()()()()()()()()()()()()

                                              &SEWARD

                                   only a single process is used
                       available to each process: 2.0 GB of memory, 1 thread?
()()()()()()()()()()()()()()()()()()()()()()()()()()()()()()()()()()()()()()()()()()()()()()()()()()
 
 ###############################################################################
 ###############################################################################
 ###                                                                         ###
 ###                                                                         ###
 ###                                                                         ###
 ###    WARNING: EXPERT option is ON!                                        ###
 ###                                                                         ###
 ###                                                                         ###
 ###############################################################################
 ###############################################################################
               SEWARD will generate:
                  Multipole Moment integrals up to order  2
                  Kinetic Energy integrals
                  Nuclear Attraction integrals (point charge)
                  One-Electron Hamiltonian integrals
                  Velocity integrals
                  Relativistic Douglas-Kroll-Hess integrals:
                    - Parametrization         : EXP
                    - DKH order of Hamiltonian: 2
                    - DKH order of Properties : 0
                         - multipole moment operators
                         - electric potential operators
                         - contact operators
                  Atomic mean-field integrals
                  Two-Electron Repulsion integrals
 
                   Integrals are discarded if absolute value <: 0.10E-13
                   Integral cutoff threshold is set to       <: 0.10E-15
 
            Nuclear Potential Energy             17.63675312 au
 
 
      Basis set specifications :
      Symmetry species         a  
      Basis functions           48
 
 
  Input file to MOLDEN was generated!
 
 ###############################################################################
 ###############################################################################
 ###                                                                         ###
 ###                                                                         ###
 ###    There were warnings during the execution                             ###
 ###    Please, check the output with care!                                  ###
 ###                                                                         ###
 ###                                                                         ###
 ###############################################################################
 ###############################################################################
--- Stop Module: seward at Sun Dec 22 16:44:19 2024 /rc=_RC_ALL_IS_WELL_ ---
*** files: 6.24.GssOrb 6.24.guessorb.h5 6.24.guessorb.molden xmldump
    saved to directory /home/grierjones/DDCASPT2/iron_oxo_DDCASPT2/cluster/6.24

*** symbolic link created: INPORB -> 6.24.GssOrb
--- Start Module: scf at Sun Dec 22 16:44:19 2024 ---
 
()()()()()()()()()()()()()()()()()()()()()()()()()()()()()()()()()()()()()()()()()()()()()()()()()()

                                                &SCF

                                   only a single process is used
                       available to each process: 2.0 GB of memory, 1 thread?
()()()()()()()()()()()()()()()()()()()()()()()()()()()()()()()()()()()()()()()()()()()()()()()()()()
 
 *** Possible bug in opening file
 *** isFreeUnit resets the unit number
++    Input section:
      --------------
 
      Header of the integral files:
      
       Integrals generated by seward 4.2.0  , Sun Dec 22 16:44:18 2024
 
 
      Cartesian coordinates in Angstrom:
      -----------------------------------------------------
      No.  Label        X            Y            Z        
      -----------------------------------------------------
       1   O1         0.00000000   0.00000000   3.92044000
       2   FE2        0.00000000   0.00000000  -2.32044000
      -----------------------------------------------------
      Nuclear repulsion energy =   17.63675312
--
 
++    Orbital specifications:
      -----------------------
 
      Symmetry species               1
                                     a
      Frozen orbitals                0
      Start temperature = 0.500
      End temperature   = 0.010
      Temperature Factor= 0.460
      Deleted orbitals               0
      Total number of orbitals      48
      Number of basis functions     48
--
 
      Molecular charge                           2.000
 
++    Optimization specifications:
      ----------------------------
 
      SCF Algorithm: Conventional USCF
      D(i)-D(i-1) density differences are used
      Number of density matrices in core                5
      Maximum number of NDDO SCF iterations           400
      Maximum number of HF SCF iterations             400
      Threshold for SCF energy change            0.10E-08
      Threshold for density matrix               0.10E-03
      Threshold for Fock matrix                  0.15E-03
      Threshold for linear dependence            0.10E-08
      Threshold at which DIIS is turned on       0.15E+00
      Threshold at which QNR/C2DIIS is turned on 0.75E-01
      Threshold for Norm(delta) (QNR/C2DIIS)     0.20E-04
      DIIS extrapolation of the SCF procedure
      All orbitals punched on: UHFORB
--
 
      Input vectors read from INPORB
      Orbital file label: *Guess orbitals
 
 
++ Convergence information
                               UHF SCF        iterations: Energy and convergence statistics
 
Iter     Tot. SCF        One-elec.       Two-elec.     Energy      Max Dij or  Max Fij      DNorm      TNorm      AccCon     Time
         Energy          Energy          Energy        Change      Delta Norm                                                in Sec.
 
 The total and one-electron energies are shifted by a value of      1000. a.u.
 
   1  -343.316816541  -869.476162610   508.522592948   0.00E+00    0.16E+00*   0.35E+00*    0.75E+01   0.18E+03   None         0.
   2  -343.495438439  -865.469260237   504.337068676  -0.18E+00*   0.11E+00*   0.14E+00*    0.10E+01   0.18E+03   EDIIS        0.
   3  -341.584841482  -913.643058899   554.421464296   0.19E+01*   0.63E-01*   0.13E+00*    0.18E+01   0.19E+03   EDIIS        0.
   4  -342.816332218  -852.852965356   492.399880016  -0.12E+01*   0.76E-01*   0.60E-01*    0.15E+01   0.17E+03   EDIIS        0.
   5  -344.050436220  -887.571619286   525.884429945  -0.12E+01*   0.25E-01*   0.34E-01*    0.86E+00   0.18E+03   EDIIS        0.
   6  -344.095762126  -858.770924356   497.038409108  -0.45E-01*   0.83E-01*   0.73E-01*    0.18E+01   0.17E+03   EDIIS        0.
   7  -343.760536547  -896.285716688   534.888427021   0.34E+00*   0.33E-01*   0.42E-01*    0.16E+01   0.18E+03   EDIIS        0.
   8  -344.956270480  -875.161786726   512.568763125  -0.12E+01*   0.22E+00*   0.14E+00*    0.16E+01   0.18E+03   EDIIS        0.
   9  -344.983976605  -877.288808383   514.668078657  -0.28E-01*   0.76E-01*   0.92E-01*    0.57E+00   0.18E+03   EDIIS        0.
  10  -345.005777907  -878.379071283   515.736540254  -0.22E-01*   0.12E+00*   0.12E+00*    0.14E+01   0.18E+03   EDIIS        0.
  11  -345.141198859  -878.473785102   515.695833122  -0.14E+00*   0.12E+00*   0.94E-01*    0.90E+00   0.18E+03   EDIIS        0.
  12  -345.250455525  -878.906771963   516.019563317  -0.11E+00*   0.52E-01*   0.48E-01*    0.40E+00   0.18E+03   EDIIS        0.
  13  -345.252953556  -878.902625233   516.012918556  -0.25E-02*   0.18E-01*   0.13E-01*    0.93E-01   0.18E+03   EDIIS        0.
 
       Fermi aufbau procedure completed!
      nOcc(alpha)=   18
      nOcc(beta) =   14
 
  14  -345.253275721  -878.915642490   516.025613647  -0.32E-03*   0.63E-02*   0.45E-02*    0.36E-01   0.18E+03   EDIIS        0.
  15  -345.253330913  -878.908218703   516.018134668  -0.55E-04*   0.34E-02*   0.16E-02*    0.16E-01   0.18E+03   EDIIS        0.
  16  -345.253344627  -878.912533421   516.022435673  -0.14E-04*   0.25E-02*   0.68E-03*    0.89E-02   0.18E+03   EDIIS        0.
  17  -345.253349222  -878.909389900   516.019287556  -0.46E-05*   0.18E-02*   0.49E-03*    0.56E-02   0.18E+03   EDIIS        0.
  18  -345.253351097  -878.911202407   516.021098189  -0.19E-05*   0.31E-03*   0.11E-02*    0.37E-02   0.18E+03   c2DIIS       0.
  19  -345.253352680  -878.907600159   516.017494357  -0.16E-05*   0.37E-03*   0.81E-04     0.10E-02   0.18E+03   QNRc2DIIS    0.
  20  -345.253352722  -878.912144366   516.022038523  -0.42E-07*   0.32E-03*   0.69E-04     0.52E-03   0.18E+03   QNRc2DIIS    0.
  21  -345.253352741  -878.910850403   516.020744541  -0.19E-07*   0.19E-03*   0.22E-04     0.45E-03   0.18E+03   QNRc2DIIS    0.
  22  -345.253352745  -878.910379741   516.020273875  -0.37E-08*   0.13E-03*   0.96E-05     0.27E-03   0.18E+03   QNRc2DIIS    0.
  23  -345.253352746  -878.910379878   516.020274010  -0.11E-08*   0.15E-04    0.34E-05     0.18E-03   0.18E+03   QNRc2DIIS    0.
  24  -345.253352746  -878.910418239   516.020312372  -0.41E-10    0.58E-05    0.95E-06     0.22E-04   0.18E+03   QNRc2DIIS    0.
 
       Convergence after 24 Macro Iterations
--
 
 *****************************************************************************************************************************
 *                                                                                                                           *
 *                                             SCF/KS-DFT Program, Final results                                             *
 *                                                                                                                           *
 *                                                                                                                           *
 *                                                                                                                           *
 *                                                       Final Results                                                       *
 *                                                                                                                           *
 *****************************************************************************************************************************
 
::    Total SCF energy                              -1345.2533527459
      One-electron energy                           -1878.9104182394
      Two-electron energy                             516.0203123722
      Nuclear repulsion energy                         17.6367531213
      Kinetic energy (interpolated)                  1399.7189994267
      Virial theorem                                    0.9610881565
      Total spin, S(S+1)                                7.0063308682
      Total spin, S                                     2.1937577597
      Max non-diagonal density matrix element           0.0000032966
      Max non-diagonal Fock matrix element              0.0000006939
 
 
      All orbitals with orbital energies smaller than  E(LUMO)+0.5 are printed
 
++    Molecular orbitals:
      -------------------
 
      Title: UHF orbitals (alpha)

      Molecular orbitals for symmetry species 1: a  
 
          Orbital            1         2         3         4         5         6         7         8         9        10    
          Energy         -264.0543  -32.8806  -27.9586  -27.9586  -27.9244  -21.4605   -4.8280   -3.3959   -3.3959   -3.3210
          Occ. No.          1.0000    1.0000    1.0000    1.0000    1.0000    1.0000    1.0000    1.0000    1.0000    1.0000
 
        1 O1     1s         0.0000   -0.0000   -0.0000   -0.0000   -0.0000    1.0000   -0.0000   -0.0000   -0.0000    0.0000
        2 O1     2s         0.0000   -0.0000    0.0000   -0.0000   -0.0000   -0.0020   -0.0000    0.0000    0.0000    0.0000
        3 O1     3s         0.0000   -0.0000    0.0000   -0.0000   -0.0000    0.0003   -0.0000   -0.0000    0.0000    0.0000
        4 O1     2px        0.0000   -0.0000   -0.0000   -0.0000   -0.0000    0.0000    0.0000    0.0000    0.0000    0.0000
        5 O1     3px       -0.0000    0.0000   -0.0000   -0.0000   -0.0000   -0.0000    0.0000    0.0000    0.0000    0.0000
        6 O1     2py        0.0000   -0.0000   -0.0000    0.0000    0.0000   -0.0000   -0.0000    0.0000   -0.0000   -0.0000
        7 O1     3py        0.0000   -0.0000   -0.0000    0.0000    0.0000    0.0000    0.0000    0.0000   -0.0000   -0.0000
        8 O1     2pz        0.0000    0.0000    0.0000    0.0000    0.0000   -0.0000    0.0000   -0.0000   -0.0000   -0.0000
        9 O1     3pz        0.0000    0.0000    0.0000    0.0000    0.0000    0.0000    0.0002   -0.0000   -0.0000    0.0000
       10 O1     3d2-      -0.0000   -0.0000   -0.0000    0.0000   -0.0000   -0.0000   -0.0000    0.0000   -0.0000   -0.0000
       11 O1     3d1-       0.0000   -0.0000    0.0000   -0.0000   -0.0000   -0.0000    0.0000   -0.0000    0.0000    0.0000
       12 O1     3d0       -0.0000   -0.0000   -0.0000    0.0000   -0.0000    0.0009   -0.0000    0.0000   -0.0000   -0.0000
       13 O1     3d1+      -0.0000    0.0000    0.0000    0.0000    0.0000    0.0000   -0.0000   -0.0000   -0.0000   -0.0000
       14 O1     3d2+       0.0000    0.0000   -0.0000   -0.0000    0.0000    0.0003    0.0000    0.0000    0.0000    0.0000
       15 FE2    1s         1.0000   -0.0000   -0.0000   -0.0000    0.0000   -0.0000   -0.0000    0.0000   -0.0000   -0.0000
       16 FE2    2s         0.0000    1.0000   -0.0000   -0.0000    0.0000    0.0000   -0.0028    0.0000   -0.0000    0.0000
       17 FE2    3s         0.0000    0.0028    0.0000    0.0000   -0.0000   -0.0000    0.9999   -0.0000   -0.0000    0.0003
       18 FE2    4s         0.0000   -0.0002    0.0000    0.0000    0.0000   -0.0000   -0.0003   -0.0000    0.0000    0.0002
       19 FE2    5s         0.0000    0.0002    0.0000    0.0000    0.0000   -0.0000    0.0017   -0.0000    0.0000    0.0001
       20 FE2    2px        0.0000    0.0000    0.0353    0.9994   -0.0000    0.0000   -0.0000   -0.0001   -0.0028    0.0000
       21 FE2    3px        0.0000    0.0000    0.0001    0.0028   -0.0000    0.0000    0.0000    0.0353    0.9993   -0.0000
       22 FE2    4px        0.0000   -0.0000   -0.0000   -0.0004    0.0000    0.0000    0.0000   -0.0002   -0.0052    0.0000
       23 FE2    5px       -0.0000    0.0000    0.0000    0.0011   -0.0000    0.0000   -0.0000    0.0002    0.0049    0.0000
       24 FE2    2py        0.0000    0.0000    0.9994   -0.0353    0.0000    0.0000    0.0000   -0.0028    0.0001   -0.0000
       25 FE2    3py       -0.0000   -0.0000    0.0028   -0.0001    0.0000   -0.0000   -0.0000    0.9993   -0.0353    0.0000
       26 FE2    4py        0.0000    0.0000   -0.0004    0.0000   -0.0000   -0.0000   -0.0000   -0.0052    0.0002   -0.0000
       27 FE2    5py       -0.0000   -0.0000    0.0011   -0.0000    0.0000   -0.0000    0.0000    0.0049   -0.0002    0.0000
       28 FE2    2pz       -0.0000   -0.0000   -0.0000    0.0000    1.0000    0.0000    0.0000    0.0000   -0.0000   -0.0023
       29 FE2    3pz        0.0000   -0.0000   -0.0000    0.0000    0.0023   -0.0000   -0.0003   -0.0000    0.0000    0.9999
       30 FE2    4pz       -0.0000    0.0000    0.0000   -0.0000   -0.0003   -0.0000   -0.0000    0.0000   -0.0000   -0.0024
       31 FE2    5pz        0.0000   -0.0000   -0.0000    0.0000    0.0008   -0.0000    0.0002   -0.0000    0.0000    0.0028
       32 FE2    3d2-       0.0000    0.0000    0.0000   -0.0000    0.0000    0.0000    0.0000    0.0000   -0.0000   -0.0000
       33 FE2    4d2-      -0.0000   -0.0000   -0.0000    0.0000   -0.0000    0.0000   -0.0000   -0.0000    0.0000   -0.0000
       34 FE2    3d1-       0.0000   -0.0000   -0.0000    0.0000   -0.0000   -0.0000   -0.0000   -0.0004    0.0000   -0.0000
       35 FE2    4d1-       0.0000    0.0000    0.0000   -0.0000    0.0000   -0.0000    0.0000    0.0002   -0.0000    0.0000
       36 FE2    3d0       -0.0000   -0.0005    0.0000   -0.0000   -0.0000   -0.0000   -0.0131    0.0000   -0.0000   -0.0005
       37 FE2    4d0        0.0000    0.0004    0.0000    0.0000    0.0000   -0.0000    0.0048   -0.0000    0.0000    0.0003
       38 FE2    3d1+       0.0000    0.0000   -0.0000   -0.0000    0.0000    0.0000    0.0000   -0.0000   -0.0004    0.0000
       39 FE2    4d1+      -0.0000   -0.0000    0.0000    0.0000   -0.0000    0.0000   -0.0000    0.0000    0.0002    0.0000
       40 FE2    3d2+      -0.0000   -0.0000    0.0000    0.0000   -0.0000   -0.0000   -0.0000    0.0000    0.0000    0.0000
       41 FE2    4d2+       0.0000    0.0000   -0.0000   -0.0000    0.0000   -0.0000    0.0000   -0.0000   -0.0000    0.0000
       42 FE2    4f3-      -0.0000    0.0000   -0.0000    0.0000    0.0000   -0.0000    0.0000   -0.0000    0.0000    0.0000
       43 FE2    4f2-      -0.0000    0.0000    0.0000   -0.0000    0.0000    0.0000   -0.0000    0.0000   -0.0000    0.0000
       44 FE2    4f1-      -0.0000    0.0000   -0.0001    0.0000   -0.0000   -0.0000    0.0000   -0.0032    0.0001   -0.0000
       45 FE2    4f0        0.0000   -0.0000    0.0000   -0.0000   -0.0004   -0.0000   -0.0000    0.0000   -0.0000   -0.0103
       46 FE2    4f1+      -0.0000   -0.0000   -0.0000   -0.0001    0.0000    0.0000   -0.0000   -0.0001   -0.0032    0.0000
       47 FE2    4f2+       0.0000   -0.0000    0.0000    0.0000   -0.0000   -0.0000    0.0000    0.0000    0.0000   -0.0000
       48 FE2    4f3+      -0.0000    0.0000   -0.0000   -0.0000   -0.0000   -0.0000   -0.0000   -0.0000   -0.0000    0.0000
 
          Orbital           11        12        13        14        15        16        17        18        19        20    
          Energy           -1.8186   -1.2369   -1.1020   -1.1020   -1.0716   -1.0716   -1.0124   -0.6572   -0.6022   -0.5134
          Occ. No.          1.0000    1.0000    1.0000    1.0000    1.0000    1.0000    1.0000    1.0000    0.0000    0.0000
 
        1 O1     1s         0.0020    0.0000   -0.0000   -0.0000   -0.0000   -0.0000   -0.0000    0.0000   -0.0000   -0.0000
        2 O1     2s         0.9985    0.0053   -0.0000   -0.0000    0.0000   -0.0000   -0.0001    0.0001   -0.0000   -0.0000
        3 O1     3s        -0.0484   -0.0026   -0.0000   -0.0000    0.0000    0.0000   -0.0001    0.0005   -0.0000    0.0000
        4 O1     2px       -0.0000    0.0000    0.0000    0.0000   -0.0000   -0.0001    0.0000    0.0000    0.9967    0.0350
        5 O1     3px        0.0000   -0.0000    0.0000    0.0000   -0.0000   -0.0001    0.0000    0.0000    0.0724    0.0044
        6 O1     2py        0.0000   -0.0000   -0.0000    0.0000   -0.0000    0.0000   -0.0000   -0.0000   -0.0352    0.9916
        7 O1     3py       -0.0000    0.0000   -0.0000    0.0000   -0.0001    0.0000   -0.0000   -0.0000   -0.0026    0.1247
        8 O1     2pz       -0.0055    0.9945    0.0000    0.0000    0.0000    0.0000    0.0003    0.0001   -0.0000   -0.0000
        9 O1     3pz       -0.0007   -0.1047    0.0000    0.0000   -0.0000   -0.0000    0.0007   -0.0018   -0.0000   -0.0000
       10 O1     3d2-      -0.0015   -0.0000    0.0000   -0.0000    0.0000   -0.0000    0.0000    0.0000   -0.0000    0.0000
       11 O1     3d1-      -0.0000    0.0000   -0.0000   -0.0000    0.0000   -0.0000    0.0000    0.0000    0.0001   -0.0016
       12 O1     3d0        0.0173   -0.0016   -0.0000   -0.0000   -0.0000   -0.0000   -0.0000    0.0001    0.0000    0.0000
       13 O1     3d1+       0.0000   -0.0000   -0.0000   -0.0000    0.0000    0.0000   -0.0000   -0.0000   -0.0016   -0.0001
       14 O1     3d2+       0.0209    0.0002   -0.0000   -0.0000    0.0000    0.0000   -0.0000   -0.0000    0.0000    0.0000
       15 FE2    1s        -0.0000   -0.0000    0.0000    0.0000   -0.0000   -0.0000    0.0000   -0.0000    0.0000   -0.0000
       16 FE2    2s        -0.0000   -0.0000    0.0000    0.0000    0.0000   -0.0000    0.0005    0.0003   -0.0000    0.0000
       17 FE2    3s         0.0000   -0.0000    0.0000    0.0000    0.0000   -0.0000    0.0133    0.0008   -0.0000   -0.0000
       18 FE2    4s        -0.0001   -0.0003    0.0000    0.0000   -0.0000   -0.0000   -0.0017    0.9690   -0.0000   -0.0000
       19 FE2    5s        -0.0004   -0.0002   -0.0000   -0.0000   -0.0000    0.0000    0.0016   -0.2381    0.0000   -0.0000
       20 FE2    2px        0.0000   -0.0000   -0.0000   -0.0000    0.0000    0.0000    0.0000   -0.0000   -0.0000   -0.0000
       21 FE2    3px       -0.0000    0.0000   -0.0000   -0.0000    0.0000    0.0004    0.0000   -0.0000   -0.0000   -0.0000
       22 FE2    4px        0.0000   -0.0000    0.0000   -0.0000    0.0001    0.0038    0.0000   -0.0000   -0.0005   -0.0000
       23 FE2    5px        0.0000   -0.0000   -0.0000   -0.0000    0.0000    0.0003    0.0000   -0.0000   -0.0002   -0.0000
       24 FE2    2py       -0.0000   -0.0000    0.0000   -0.0000    0.0000   -0.0000   -0.0000    0.0000    0.0000   -0.0000
       25 FE2    3py        0.0000    0.0000    0.0000   -0.0000    0.0004   -0.0000    0.0000    0.0000    0.0000   -0.0000
       26 FE2    4py       -0.0000    0.0000    0.0000    0.0000    0.0038   -0.0001    0.0000    0.0000    0.0000   -0.0002
       27 FE2    5py       -0.0000    0.0000    0.0000   -0.0000    0.0003   -0.0000    0.0000    0.0000    0.0000   -0.0001
       28 FE2    2pz        0.0000   -0.0000    0.0000    0.0000   -0.0000   -0.0000    0.0000    0.0000   -0.0000   -0.0000
       29 FE2    3pz       -0.0000   -0.0000   -0.0000   -0.0000   -0.0000   -0.0000    0.0005   -0.0000   -0.0000    0.0000
       30 FE2    4pz       -0.0002   -0.0003    0.0000    0.0000   -0.0000    0.0000    0.0058    0.0636   -0.0000   -0.0000
       31 FE2    5pz       -0.0001   -0.0001    0.0000    0.0000   -0.0000    0.0000    0.0004    0.0052   -0.0000   -0.0000
       32 FE2    3d2-       0.0000    0.0000   -0.0709    0.9957   -0.0000    0.0000    0.0000    0.0000    0.0000   -0.0000
       33 FE2    4d2-       0.0000    0.0000    0.0042   -0.0589    0.0000   -0.0000    0.0000   -0.0000    0.0000    0.0000
       34 FE2    3d1-      -0.0000    0.0000    0.0000    0.0000    0.9981   -0.0353    0.0000    0.0000    0.0000   -0.0001
       35 FE2    4d1-      -0.0000    0.0000   -0.0000   -0.0000   -0.0512    0.0018   -0.0000   -0.0000    0.0000   -0.0001
       36 FE2    3d0       -0.0000   -0.0001    0.0000    0.0000   -0.0000    0.0000    0.9993    0.0012   -0.0000   -0.0000
       37 FE2    4d0       -0.0001   -0.0001   -0.0000   -0.0000    0.0000   -0.0000   -0.0341   -0.0127    0.0000   -0.0000
       38 FE2    3d1+       0.0000   -0.0000    0.0000   -0.0000    0.0353    0.9981   -0.0000   -0.0000   -0.0001   -0.0000
       39 FE2    4d1+       0.0000   -0.0000   -0.0000    0.0000   -0.0018   -0.0512    0.0000   -0.0000   -0.0001   -0.0000
       40 FE2    3d2+      -0.0000   -0.0000    0.9957    0.0709   -0.0000   -0.0000   -0.0000   -0.0000   -0.0000   -0.0000
       41 FE2    4d2+      -0.0000   -0.0000   -0.0589   -0.0042    0.0000    0.0000   -0.0000    0.0000   -0.0000    0.0000
       42 FE2    4f3-       0.0000    0.0000   -0.0000    0.0000    0.0000   -0.0000    0.0000    0.0000   -0.0000    0.0000
       43 FE2    4f2-       0.0000    0.0000    0.0000   -0.0001    0.0000   -0.0000   -0.0000   -0.0000   -0.0000    0.0000
       44 FE2    4f1-      -0.0000    0.0000   -0.0000   -0.0000   -0.0002    0.0000   -0.0000   -0.0000    0.0000    0.0000
       45 FE2    4f0       -0.0000   -0.0000   -0.0000   -0.0000    0.0000   -0.0000   -0.0002    0.0001   -0.0000    0.0000
       46 FE2    4f1+       0.0000   -0.0000   -0.0000   -0.0000   -0.0000   -0.0002    0.0000    0.0000   -0.0000    0.0000
       47 FE2    4f2+      -0.0000   -0.0000   -0.0001   -0.0000    0.0000    0.0000    0.0000    0.0000   -0.0000    0.0000
       48 FE2    4f3+      -0.0000    0.0000    0.0000    0.0000    0.0000    0.0000   -0.0000   -0.0000    0.0000    0.0000
 
          Orbital           21        22        23        24    
          Energy           -0.2556   -0.2555   -0.2468   -0.1334
          Occ. No.          0.0000    0.0000    0.0000    0.0000
 
        1 O1     1s        -0.0000    0.0000   -0.0005   -0.0010
        2 O1     2s        -0.0000    0.0000   -0.0053   -0.0116
        3 O1     3s         0.0000   -0.0000    0.0045    0.0165
        4 O1     2px       -0.0018   -0.0001   -0.0000   -0.0000
        5 O1     3px        0.0024    0.0001   -0.0000   -0.0000
        6 O1     2py        0.0001   -0.0025    0.0000   -0.0000
        7 O1     3py       -0.0001    0.0019    0.0000    0.0000
        8 O1     2pz        0.0000    0.0000    0.0026    0.0039
        9 O1     3pz       -0.0000    0.0000   -0.0205   -0.0629
       10 O1     3d2-      -0.0000    0.0000    0.0000    0.0000
       11 O1     3d1-       0.0000   -0.0001    0.0000   -0.0000
       12 O1     3d0       -0.0000   -0.0000    0.0005    0.0012
       13 O1     3d1+      -0.0001   -0.0000   -0.0000   -0.0000
       14 O1     3d2+       0.0000    0.0000   -0.0001   -0.0003
       15 FE2    1s        -0.0000    0.0000   -0.0000   -0.0000
       16 FE2    2s        -0.0000    0.0000   -0.0000   -0.0002
       17 FE2    3s        -0.0000    0.0000   -0.0003   -0.0016
       18 FE2    4s        -0.0000    0.0000   -0.0477    0.2391
       19 FE2    5s         0.0000   -0.0000    0.0739    0.9603
       20 FE2    2px        0.0003    0.0000   -0.0000   -0.0000
       21 FE2    3px        0.0048    0.0002   -0.0000   -0.0000
       22 FE2    4px        0.9956    0.0352   -0.0000   -0.0000
       23 FE2    5px        0.0855    0.0030   -0.0000   -0.0000
       24 FE2    2py       -0.0000    0.0003    0.0000    0.0000
       25 FE2    3py       -0.0002    0.0048    0.0000    0.0000
       26 FE2    4py       -0.0352    0.9956    0.0000    0.0000
       27 FE2    5py       -0.0030    0.0855    0.0000    0.0000
       28 FE2    2pz        0.0000   -0.0000    0.0002   -0.0000
       29 FE2    3pz        0.0000   -0.0000    0.0021   -0.0003
       30 FE2    4pz        0.0000   -0.0000    0.9903   -0.0671
       31 FE2    5pz        0.0000   -0.0000    0.0925   -0.0010
       32 FE2    3d2-       0.0000    0.0000    0.0000   -0.0000
       33 FE2    4d2-       0.0000   -0.0000   -0.0000   -0.0000
       34 FE2    3d1-       0.0001   -0.0034   -0.0000    0.0000
       35 FE2    4d1-      -0.0003    0.0086    0.0000    0.0000
       36 FE2    3d0       -0.0000    0.0000   -0.0056   -0.0003
       37 FE2    4d0        0.0000   -0.0000    0.0128    0.0133
       38 FE2    3d1+      -0.0034   -0.0001    0.0000   -0.0000
       39 FE2    4d1+       0.0086    0.0003   -0.0000    0.0000
       40 FE2    3d2+       0.0000    0.0000   -0.0000    0.0000
       41 FE2    4d2+      -0.0000   -0.0000    0.0000    0.0000
       42 FE2    4f3-      -0.0000    0.0000   -0.0000   -0.0000
       43 FE2    4f2-      -0.0000   -0.0000   -0.0000   -0.0000
       44 FE2    4f1-       0.0000   -0.0001    0.0000   -0.0000
       45 FE2    4f0        0.0000    0.0000    0.0002    0.0000
       46 FE2    4f1+      -0.0001   -0.0000    0.0000    0.0000
       47 FE2    4f2+      -0.0000    0.0000    0.0000    0.0000
       48 FE2    4f3+       0.0000    0.0000   -0.0000    0.0000
--
 
 
  Input file to MOLDEN was generated!
 
 
++    Static properties:
      ------------------
 
 
      LoProp Charges per center
 

                   O1       FE2   
      Nuclear      8.0000  26.0000
      Electronic  -7.0000 -25.0000
 
      Total        1.0000   1.0000
--
 
 
      All orbitals with orbital energies smaller than  E(LUMO)+0.5 are printed
 
++    Molecular orbitals:
      -------------------
 
      Title: UHF orbitals (beta)

      Molecular orbitals for symmetry species 1: a  
 
          Orbital            1         2         3         4         5         6         7         8         9        10    
          Energy         -264.0485  -32.7532  -27.8239  -27.8239  -27.8239  -21.5079   -4.4660   -2.9784   -2.9266   -2.9266
          Occ. No.          1.0000    1.0000    1.0000    1.0000    1.0000    1.0000    1.0000    1.0000    1.0000    1.0000
 
        1 O1     1s         0.0000    0.0000   -0.0000   -0.0000    0.0000    1.0000    0.0000    0.0000    0.0000   -0.0000
        2 O1     2s         0.0000    0.0000   -0.0000   -0.0000    0.0000    0.0002    0.0000    0.0001   -0.0000    0.0000
        3 O1     3s         0.0000    0.0000   -0.0000   -0.0000    0.0000   -0.0009    0.0000    0.0001    0.0000   -0.0000
        4 O1     2px        0.0000   -0.0000    0.0000    0.0000    0.0000    0.0000   -0.0000   -0.0000    0.0000    0.0000
        5 O1     3px       -0.0000    0.0000    0.0000    0.0000    0.0000   -0.0000   -0.0000   -0.0000    0.0000    0.0000
        6 O1     2py        0.0000   -0.0000   -0.0000    0.0000    0.0000   -0.0000    0.0000   -0.0000   -0.0000    0.0000
        7 O1     3py        0.0000   -0.0000   -0.0000    0.0000    0.0000    0.0000    0.0000   -0.0000   -0.0000    0.0001
        8 O1     2pz        0.0000   -0.0000    0.0000    0.0000   -0.0000   -0.0000   -0.0000   -0.0000    0.0000   -0.0000
        9 O1     3pz        0.0000   -0.0000    0.0000    0.0000   -0.0000    0.0000   -0.0001   -0.0001   -0.0000   -0.0000
       10 O1     3d2-       0.0000   -0.0000   -0.0000   -0.0000   -0.0000    0.0001   -0.0000   -0.0000    0.0000    0.0000
       11 O1     3d1-       0.0000   -0.0000    0.0000   -0.0000   -0.0000    0.0000   -0.0000    0.0000    0.0000   -0.0000
       12 O1     3d0       -0.0000    0.0000   -0.0000   -0.0000    0.0000    0.0002    0.0000    0.0000    0.0000    0.0000
       13 O1     3d1+       0.0000   -0.0000   -0.0000   -0.0000   -0.0000   -0.0000   -0.0000    0.0000   -0.0000   -0.0000
       14 O1     3d2+      -0.0000    0.0000   -0.0000    0.0000    0.0000   -0.0010    0.0000    0.0000    0.0000   -0.0000
       15 FE2    1s         1.0000    0.0000   -0.0000   -0.0000    0.0000    0.0000    0.0000   -0.0000   -0.0000    0.0000
       16 FE2    2s        -0.0000    1.0000   -0.0000   -0.0000    0.0001    0.0000    0.0005    0.0000   -0.0000    0.0000
       17 FE2    3s        -0.0000   -0.0005    0.0000    0.0000   -0.0000    0.0000    1.0000    0.0010   -0.0000   -0.0000
       18 FE2    4s         0.0000    0.0001    0.0000    0.0000   -0.0000    0.0000    0.0028   -0.0001    0.0000    0.0000
       19 FE2    5s        -0.0000   -0.0002    0.0000    0.0000   -0.0000    0.0000   -0.0017    0.0001   -0.0000   -0.0000
       20 FE2    2px        0.0000    0.0000    0.9994    0.0353    0.0000    0.0000   -0.0000   -0.0000    0.0026    0.0001
       21 FE2    3px        0.0000    0.0000   -0.0026   -0.0001   -0.0000   -0.0000    0.0000   -0.0000    0.9993    0.0353
       22 FE2    4px        0.0000   -0.0000    0.0004    0.0000    0.0000   -0.0000    0.0000   -0.0000   -0.0013   -0.0000
       23 FE2    5px       -0.0000    0.0000   -0.0009   -0.0000   -0.0000   -0.0000   -0.0000    0.0000   -0.0029   -0.0001
       24 FE2    2py        0.0000    0.0000   -0.0353    0.9994    0.0000    0.0000   -0.0000    0.0000   -0.0001    0.0026
       25 FE2    3py       -0.0000   -0.0000    0.0001   -0.0026   -0.0000    0.0000   -0.0000    0.0000   -0.0353    0.9993
       26 FE2    4py        0.0000    0.0000   -0.0000    0.0004    0.0000    0.0000   -0.0000    0.0000    0.0000   -0.0013
       27 FE2    5py       -0.0000   -0.0000    0.0000   -0.0009   -0.0000    0.0000    0.0000   -0.0000    0.0001   -0.0029
       28 FE2    2pz       -0.0000   -0.0001   -0.0000   -0.0000    1.0000    0.0000    0.0000    0.0016    0.0000   -0.0000
       29 FE2    3pz        0.0000   -0.0000    0.0000    0.0000   -0.0016    0.0000   -0.0010    0.9999    0.0000   -0.0000
       30 FE2    4pz       -0.0000    0.0000   -0.0000   -0.0000    0.0003    0.0000   -0.0000    0.0007   -0.0000    0.0000
       31 FE2    5pz        0.0000   -0.0000    0.0000    0.0000   -0.0007    0.0000    0.0001   -0.0035   -0.0000    0.0000
       32 FE2    3d2-      -0.0000   -0.0000   -0.0000    0.0000   -0.0000   -0.0000   -0.0000   -0.0000   -0.0000    0.0000
       33 FE2    4d2-       0.0000   -0.0000    0.0000   -0.0000    0.0000   -0.0000   -0.0000   -0.0000   -0.0000    0.0000
       34 FE2    3d1-       0.0000    0.0000    0.0000   -0.0000   -0.0000    0.0000    0.0000   -0.0000    0.0000   -0.0006
       35 FE2    4d1-      -0.0000    0.0000   -0.0000    0.0000    0.0000   -0.0000    0.0000   -0.0000   -0.0000    0.0000
       36 FE2    3d0        0.0000    0.0001    0.0000    0.0000   -0.0000    0.0000    0.0011   -0.0006   -0.0000    0.0000
       37 FE2    4d0        0.0000    0.0000   -0.0000   -0.0000    0.0000    0.0000    0.0003    0.0000   -0.0000   -0.0000
       38 FE2    3d1+      -0.0000   -0.0000   -0.0000   -0.0000    0.0000   -0.0000   -0.0000    0.0000   -0.0006   -0.0000
       39 FE2    4d1+      -0.0000   -0.0000    0.0000    0.0000   -0.0000   -0.0000   -0.0000   -0.0000    0.0000    0.0000
       40 FE2    3d2+       0.0000    0.0000    0.0000    0.0000    0.0000    0.0000    0.0000    0.0000    0.0000    0.0000
       41 FE2    4d2+      -0.0000    0.0000   -0.0000   -0.0000   -0.0000    0.0000    0.0000    0.0000    0.0000    0.0000
       42 FE2    4f3-      -0.0000    0.0000   -0.0000    0.0000    0.0000   -0.0000    0.0000    0.0000   -0.0000    0.0000
       43 FE2    4f2-       0.0000   -0.0000   -0.0000    0.0000    0.0000   -0.0000   -0.0000    0.0000   -0.0000    0.0000
       44 FE2    4f1-      -0.0000    0.0000    0.0000   -0.0005   -0.0000   -0.0000    0.0000    0.0000    0.0004   -0.0104
       45 FE2    4f0       -0.0000    0.0000   -0.0000   -0.0000    0.0010   -0.0000    0.0000    0.0164   -0.0000    0.0000
       46 FE2    4f1+      -0.0000    0.0000   -0.0005   -0.0000   -0.0000   -0.0000   -0.0000   -0.0000   -0.0104   -0.0004
       47 FE2    4f2+      -0.0000    0.0000    0.0000    0.0000   -0.0000    0.0000    0.0000   -0.0000    0.0000    0.0000
       48 FE2    4f3+      -0.0000    0.0000    0.0000    0.0000   -0.0000   -0.0000   -0.0000    0.0000    0.0000    0.0000
 
          Orbital           11        12        13        14        15        16        17        18        19        20    
          Energy           -2.0000   -1.3923   -1.2837   -0.8648   -0.6369   -0.3185   -0.1691   -0.1671   -0.1671   -0.1411
          Occ. No.          1.0000    1.0000    1.0000    1.0000    0.0000    0.0000    0.0000    0.0000    0.0000    0.0000
 
        1 O1     1s        -0.0003    0.0000    0.0000   -0.0000   -0.0000   -0.0003   -0.0005   -0.0000   -0.0000   -0.0000
        2 O1     2s         0.9970   -0.0000    0.0045   -0.0001    0.0000   -0.0030   -0.0049   -0.0000   -0.0000   -0.0000
        3 O1     3s        -0.0731    0.0000   -0.0025   -0.0001   -0.0000    0.0020    0.0088    0.0000    0.0000    0.0000
        4 O1     2px        0.0000    0.0349   -0.0000    0.0000    0.9983    0.0000    0.0000   -0.0018    0.0000    0.0000
        5 O1     3px       -0.0000   -0.0052    0.0000   -0.0000    0.0473    0.0000    0.0000    0.0057    0.0003   -0.0000
        6 O1     2py       -0.0000    0.9885    0.0000    0.0000   -0.0353   -0.0000   -0.0000    0.0001    0.0007   -0.0000
        7 O1     3py        0.0000   -0.1471   -0.0000   -0.0000   -0.0017   -0.0000   -0.0000   -0.0002    0.0078   -0.0000
        8 O1     2pz       -0.0048   -0.0000    0.9925    0.0003    0.0000    0.0022   -0.0005   -0.0000   -0.0000   -0.0000
        9 O1     3pz       -0.0004    0.0000   -0.1222    0.0007    0.0000   -0.0063   -0.0416   -0.0000   -0.0000   -0.0000
       10 O1     3d2-       0.0018    0.0000    0.0000   -0.0000   -0.0000   -0.0000   -0.0000   -0.0000    0.0000    0.0000
       11 O1     3d1-       0.0000   -0.0014   -0.0000    0.0000    0.0001   -0.0000   -0.0000    0.0000   -0.0002    0.0000
       12 O1     3d0       -0.0092    0.0000   -0.0018   -0.0000   -0.0000    0.0003    0.0009    0.0000    0.0000   -0.0000
       13 O1     3d1+      -0.0000   -0.0001    0.0000    0.0000   -0.0016    0.0000    0.0000   -0.0002   -0.0000    0.0000
       14 O1     3d2+      -0.0251    0.0000   -0.0001    0.0000    0.0000    0.0001    0.0002    0.0000    0.0000    0.0000
       15 FE2    1s        -0.0000   -0.0000   -0.0000   -0.0000    0.0000   -0.0000   -0.0000   -0.0000   -0.0000   -0.0000
       16 FE2    2s        -0.0000    0.0000   -0.0000   -0.0001    0.0000   -0.0001    0.0000    0.0000    0.0000   -0.0000
       17 FE2    3s        -0.0000   -0.0000   -0.0000   -0.0011    0.0000   -0.0028    0.0003    0.0000    0.0000    0.0000
       18 FE2    4s        -0.0001    0.0000   -0.0007    0.0038    0.0000    0.9979   -0.0463   -0.0000   -0.0000    0.0000
       19 FE2    5s        -0.0002    0.0000   -0.0010   -0.0004    0.0000    0.0437    0.0945    0.0000    0.0000   -0.0000
       20 FE2    2px       -0.0000    0.0000   -0.0000    0.0000   -0.0000   -0.0000    0.0000   -0.0003   -0.0000   -0.0000
       21 FE2    3px        0.0000    0.0000   -0.0000    0.0000   -0.0000   -0.0000   -0.0000    0.0016    0.0001   -0.0000
       22 FE2    4px       -0.0000    0.0000   -0.0000   -0.0000   -0.0004    0.0000   -0.0000    0.9924    0.0351   -0.0000
       23 FE2    5px       -0.0000    0.0000   -0.0000    0.0000   -0.0001    0.0000   -0.0000    0.1159    0.0041   -0.0000
       24 FE2    2py        0.0000    0.0000   -0.0000   -0.0000    0.0000    0.0000    0.0000    0.0000   -0.0003    0.0000
       25 FE2    3py       -0.0000    0.0000    0.0000    0.0000    0.0000    0.0000   -0.0000   -0.0001    0.0016   -0.0000
       26 FE2    4py       -0.0000    0.0003    0.0000    0.0000    0.0000   -0.0000   -0.0000   -0.0351    0.9924   -0.0000
       27 FE2    5py        0.0000    0.0001   -0.0000    0.0000    0.0000   -0.0000   -0.0000   -0.0041    0.1159   -0.0000
       28 FE2    2pz       -0.0000   -0.0000   -0.0000    0.0000    0.0000   -0.0000   -0.0002   -0.0000   -0.0000   -0.0000
       29 FE2    3pz       -0.0000    0.0000   -0.0000    0.0006    0.0000    0.0001   -0.0004   -0.0000   -0.0000    0.0000
       30 FE2    4pz       -0.0001    0.0000   -0.0008    0.0016    0.0000    0.0395    0.9841    0.0000    0.0000    0.0000
       31 FE2    5pz       -0.0001    0.0000   -0.0003    0.0007    0.0000    0.0070    0.1161    0.0000    0.0000    0.0000
       32 FE2    3d2-      -0.0000    0.0000    0.0000    0.0000    0.0000   -0.0000   -0.0000   -0.0000    0.0000    0.9716
       33 FE2    4d2-      -0.0000   -0.0000    0.0000    0.0000   -0.0000   -0.0000   -0.0000   -0.0000    0.0000    0.2261
       34 FE2    3d1-      -0.0000    0.0001    0.0000    0.0000    0.0000   -0.0000   -0.0000   -0.0005    0.0145    0.0000
       35 FE2    4d1-       0.0000    0.0002    0.0000    0.0000    0.0000   -0.0000   -0.0000   -0.0002    0.0063    0.0000
       36 FE2    3d0       -0.0000   -0.0000   -0.0001    1.0000    0.0000   -0.0038   -0.0016    0.0000   -0.0000   -0.0000
       37 FE2    4d0       -0.0000    0.0000   -0.0003    0.0045    0.0000   -0.0029    0.0063    0.0000    0.0000   -0.0000
       38 FE2    3d1+      -0.0000    0.0000   -0.0000   -0.0000   -0.0001   -0.0000   -0.0000    0.0145    0.0005   -0.0000
       39 FE2    4d1+      -0.0000    0.0000   -0.0000   -0.0000   -0.0001   -0.0000   -0.0000    0.0063    0.0002   -0.0000
       40 FE2    3d2+       0.0000   -0.0000   -0.0000   -0.0000   -0.0000    0.0000    0.0001    0.0000    0.0000    0.0687
       41 FE2    4d2+       0.0000    0.0000   -0.0000   -0.0000   -0.0000    0.0000    0.0000    0.0000    0.0000    0.0160
       42 FE2    4f3-       0.0000    0.0000    0.0000    0.0000   -0.0000    0.0000   -0.0000   -0.0000    0.0000    0.0000
       43 FE2    4f2-      -0.0000    0.0000   -0.0000   -0.0000   -0.0000   -0.0000   -0.0000   -0.0000   -0.0000   -0.0003
       44 FE2    4f1-       0.0000    0.0000   -0.0000   -0.0000    0.0000    0.0000    0.0000    0.0000   -0.0005   -0.0000
       45 FE2    4f0       -0.0000    0.0000   -0.0000   -0.0003    0.0000    0.0001    0.0011    0.0000    0.0000    0.0000
       46 FE2    4f1+      -0.0000    0.0000   -0.0000    0.0000   -0.0000   -0.0000    0.0000   -0.0005   -0.0000    0.0000
       47 FE2    4f2+       0.0000    0.0000    0.0000    0.0000   -0.0000    0.0000    0.0000   -0.0000    0.0000   -0.0000
       48 FE2    4f3+      -0.0000    0.0000    0.0000   -0.0000    0.0000   -0.0000   -0.0000    0.0000    0.0000    0.0000
 
          Orbital           21    
          Energy           -0.1411
          Occ. No.          0.0000
 
        1 O1     1s         0.0000
        2 O1     2s         0.0000
        3 O1     3s        -0.0000
        4 O1     2px        0.0000
        5 O1     3px       -0.0000
        6 O1     2py        0.0000
        7 O1     3py        0.0000
        8 O1     2pz        0.0000
        9 O1     3pz        0.0000
       10 O1     3d2-      -0.0000
       11 O1     3d1-      -0.0000
       12 O1     3d0        0.0000
       13 O1     3d1+       0.0000
       14 O1     3d2+       0.0000
       15 FE2    1s         0.0000
       16 FE2    2s         0.0000
       17 FE2    3s        -0.0000
       18 FE2    4s        -0.0000
       19 FE2    5s         0.0000
       20 FE2    2px        0.0000
       21 FE2    3px       -0.0000
       22 FE2    4px       -0.0000
       23 FE2    5px       -0.0000
       24 FE2    2py       -0.0000
       25 FE2    3py        0.0000
       26 FE2    4py        0.0000
       27 FE2    5py        0.0000
       28 FE2    2pz        0.0000
       29 FE2    3pz       -0.0000
       30 FE2    4pz       -0.0001
       31 FE2    5pz       -0.0000
       32 FE2    3d2-      -0.0687
       33 FE2    4d2-      -0.0160
       34 FE2    3d1-       0.0000
       35 FE2    4d1-       0.0000
       36 FE2    3d0        0.0000
       37 FE2    4d0        0.0000
       38 FE2    3d1+       0.0000
       39 FE2    4d1+       0.0000
       40 FE2    3d2+       0.9716
       41 FE2    4d2+       0.2261
       42 FE2    4f3-      -0.0000
       43 FE2    4f2-       0.0000
       44 FE2    4f1-      -0.0000
       45 FE2    4f0       -0.0000
       46 FE2    4f1+      -0.0000
       47 FE2    4f2+      -0.0003
       48 FE2    4f3+       0.0000
--
 
 
++    Molecular charges:
      ------------------
 
      Mulliken charges per centre and basis function type
      ---------------------------------------------------
 
                            O1                      FE2   
                     alpha        beta       alpha        beta
      1s           1.0000      1.0000      1.0000      1.0000
      2s           0.9969      0.9939      1.0000      1.0000
      2px         -0.0000      0.0012      1.0000      1.0000
      2pz          0.9890      0.9851      1.0000      1.0000
      2py         -0.0000      0.9771      1.0000      1.0000
      3s           0.0023      0.0053      1.0000      1.0000
      3px         -0.0000      0.0000      0.9999      0.9999
      3pz          0.0110      0.0149      0.9999      0.9997
      3py         -0.0000      0.0217      0.9999      0.9999
      4s           0.0000      0.0000      0.9391      0.0000
      3d2+         0.0004      0.0006      0.9965      0.0000
      3d1+        -0.0000      0.0000      0.9974      0.0000
      3d0          0.0003      0.0001      0.9988      1.0000
      3d1-        -0.0000      0.0000      0.9974      0.0000
      3d2-         0.0000      0.0000      0.9965      0.0000
      4px          0.0000      0.0000      0.0000      0.0000
      4pz          0.0000      0.0000      0.0041      0.0000
      4py          0.0000      0.0000      0.0000      0.0000
      5s           0.0000      0.0000      0.0567      0.0000
      4d2+         0.0000      0.0000      0.0035      0.0000
      4d1+         0.0000      0.0000      0.0026      0.0000
      4d0          0.0000      0.0000      0.0014      0.0000
      4d1-         0.0000      0.0000      0.0026      0.0000
      4d2-         0.0000      0.0000      0.0035      0.0000
      5px          0.0000      0.0000      0.0000      0.0000
      5pz          0.0000      0.0000      0.0000      0.0000
      5py          0.0000      0.0000      0.0000      0.0000
      4f3+         0.0000      0.0000      0.0000      0.0000
      4f2+         0.0000      0.0000      0.0000      0.0000
      4f1+         0.0000      0.0000      0.0000      0.0001
      4f0          0.0000      0.0000      0.0001      0.0003
      4f1-         0.0000      0.0000      0.0000      0.0001
      4f2-         0.0000      0.0000      0.0000      0.0000
      4f3-         0.0000      0.0000      0.0000      0.0000
      Total        3.0000      4.0000     15.0000     10.0000
      Total              7.0000                 25.0000
 
      Charge            1.0000                  1.0000
 
      Total electronic charge=   32.000000
 
      Total            charge=    2.000000
--
 
 
  Input file to MOLDEN was generated!
 
 
++    Static properties:
      ------------------
 
 
      LoProp Charges per center
 

                   O1       FE2   
      Nuclear      8.0000  26.0000
      Electronic  -7.0000 -25.0000
 
      Total        1.0000   1.0000
--
 
 
++    Natural Bond Order analysis
      ---------------------------
      Based on LoProp computed density
      -------------------------------------------------------------------------------------
      Atom A       Atom B       Bond Order
      -------------------------------------------------------------------------------------
      NBO located     23.999 core electrons.
      NBO located      1.998 lone pair electrons.
      NBO located      1.000 non-bonded electrons on atom O1        
      NBO located      1.000 non-bonded electrons on atom FE2       
      NBO located      1.000 non-bonded electrons on atom FE2       
      NBO located      1.000 non-bonded electrons on atom FE2       
      NBO located      1.000 non-bonded electrons on atom FE2       
      NBO located      1.000 non-bonded electrons on atom FE2       
      The remaining    0.003 electrons are to be considered as diffuse
--
 
 
++    Molecular orbitals:
      -------------------
 
      Title: Natural orbitals

      Molecular orbitals for symmetry species 1: a  
 
          Orbital            1         2         3         4         5         6         7         8         9        10    
          Energy         -264.0514  -32.4802  -21.4647  -27.1826  -27.1801  -27.7397   -4.9731   -3.8697   -3.8722   -1.2604
          Occ. No.          2.0000    2.0000    2.0000    2.0000    2.0000    2.0000    2.0000    1.9999    1.9999    1.9998
 
        1 O1     1s         0.0000    0.0011    0.9994    0.0000   -0.0000   -0.0101   -0.0079   -0.0000    0.0000   -0.0001
        2 O1     2s         0.0000   -0.0000   -0.0320   -0.0000    0.0000    0.0003    0.0003    0.0000    0.0000   -0.0011
        3 O1     3s         0.0000   -0.0000    0.0016    0.0000   -0.0000   -0.0000   -0.0000    0.0000   -0.0000    0.0023
        4 O1     2px        0.0000    0.0000    0.0000   -0.0000   -0.0000    0.0000    0.0000    0.0000    0.0000   -0.0000
        5 O1     3px       -0.0000    0.0000    0.0000   -0.0000   -0.0000    0.0000    0.0000    0.0000    0.0000   -0.0000
        6 O1     2py        0.0000   -0.0000   -0.0000   -0.0000    0.0000   -0.0000   -0.0000    0.0000   -0.0000   -0.0000
        7 O1     3py        0.0000   -0.0000    0.0000   -0.0000    0.0000    0.0000   -0.0000    0.0000   -0.0000    0.0000
        8 O1     2pz       -0.0000   -0.0002   -0.0001   -0.0000   -0.0000   -0.0005   -0.0055   -0.0000   -0.0000   -0.9935
        9 O1     3pz        0.0000    0.0000    0.0001    0.0000    0.0000    0.0001    0.0008    0.0000    0.0000    0.1135
       10 O1     3d2-       0.0000    0.0000    0.0000    0.0000   -0.0000   -0.0000   -0.0000    0.0000   -0.0000    0.0000
       11 O1     3d1-       0.0000   -0.0000    0.0000    0.0000   -0.0000   -0.0000    0.0000   -0.0000    0.0000   -0.0000
       12 O1     3d0       -0.0000    0.0000    0.0004    0.0000   -0.0000   -0.0000   -0.0000    0.0000   -0.0000    0.0017
       13 O1     3d1+      -0.0000    0.0000    0.0000    0.0000    0.0000    0.0000   -0.0000   -0.0000   -0.0000   -0.0000
       14 O1     3d2+      -0.0000   -0.0000   -0.0003   -0.0000    0.0000    0.0000    0.0000    0.0000    0.0000   -0.0000
       15 FE2    1s         1.0000    0.0000   -0.0000   -0.0000    0.0000   -0.0000    0.0001   -0.0000   -0.0000   -0.0000
       16 FE2    2s        -0.0000    0.9941   -0.0002    0.0000    0.0000   -0.0001    0.1079    0.0000    0.0000   -0.0009
       17 FE2    3s        -0.0001   -0.1081    0.0083   -0.0000   -0.0000    0.0371    0.9884    0.0000    0.0000   -0.0063
       18 FE2    4s         0.0000   -0.0002    0.0000   -0.0000   -0.0000    0.0001    0.0035    0.0000    0.0000    0.0005
       19 FE2    5s         0.0000    0.0000   -0.0000    0.0000    0.0000   -0.0000   -0.0004   -0.0000   -0.0000    0.0006
       20 FE2    2px       -0.0000   -0.0000    0.0000    0.0348    0.9849    0.0000    0.0000    0.0060    0.1694   -0.0000
       21 FE2    3px        0.0000    0.0000   -0.0000   -0.0060   -0.1694   -0.0000   -0.0000    0.0348    0.9849   -0.0000
       22 FE2    4px        0.0000   -0.0000    0.0000    0.0000    0.0005    0.0000   -0.0000   -0.0001   -0.0032    0.0000
       23 FE2    5px       -0.0000    0.0000   -0.0000   -0.0000   -0.0001   -0.0000   -0.0000    0.0000    0.0010    0.0000
       24 FE2    2py        0.0000   -0.0000   -0.0000    0.9850   -0.0348   -0.0000    0.0000    0.1691   -0.0060   -0.0000
       25 FE2    3py       -0.0000    0.0000    0.0000   -0.1691    0.0060    0.0000   -0.0000    0.9849   -0.0348   -0.0000
       26 FE2    4py        0.0000   -0.0000   -0.0000    0.0005   -0.0000   -0.0000    0.0000   -0.0032    0.0001   -0.0000
       27 FE2    5py       -0.0000    0.0000    0.0000   -0.0001    0.0000    0.0000   -0.0000    0.0010   -0.0000    0.0000
       28 FE2    2pz        0.0000    0.0041    0.0098    0.0000   -0.0000    0.9972   -0.0370   -0.0000    0.0000   -0.0004
       29 FE2    3pz       -0.0000   -0.0002   -0.0005   -0.0000    0.0000   -0.0636    0.0045   -0.0000    0.0000   -0.0007
       30 FE2    4pz        0.0000   -0.0000    0.0000    0.0000   -0.0000    0.0001    0.0005    0.0000   -0.0000    0.0006
       31 FE2    5pz        0.0000   -0.0000   -0.0000   -0.0000   -0.0000    0.0000    0.0002   -0.0000    0.0000    0.0002
       32 FE2    3d2-       0.0000   -0.0000    0.0000   -0.0000    0.0000    0.0000    0.0000    0.0000   -0.0000    0.0000
       33 FE2    4d2-       0.0000   -0.0000   -0.0000    0.0000    0.0000    0.0000    0.0000   -0.0000    0.0000   -0.0000
       34 FE2    3d1-       0.0000   -0.0000   -0.0000    0.0001   -0.0000    0.0000    0.0000   -0.0005    0.0000    0.0000
       35 FE2    4d1-       0.0000    0.0000    0.0000   -0.0000    0.0000    0.0000    0.0000    0.0001   -0.0000   -0.0000
       36 FE2    3d0        0.0000   -0.0022    0.0008   -0.0000   -0.0000    0.0045    0.0992    0.0000    0.0000    0.0078
       37 FE2    4d0        0.0000    0.0000    0.0000   -0.0000   -0.0000    0.0000    0.0008   -0.0000   -0.0000    0.0000
       38 FE2    3d1+      -0.0000    0.0000    0.0000    0.0000    0.0001   -0.0000   -0.0000   -0.0000   -0.0005   -0.0000
       39 FE2    4d1+      -0.0000    0.0000   -0.0000   -0.0000   -0.0000   -0.0000   -0.0000    0.0000    0.0001    0.0000
       40 FE2    3d2+      -0.0000    0.0000   -0.0000    0.0000   -0.0000   -0.0000   -0.0000    0.0000    0.0000   -0.0000
       41 FE2    4d2+      -0.0000    0.0000    0.0000   -0.0000   -0.0000   -0.0000   -0.0000    0.0000   -0.0000    0.0000
       42 FE2    4f3-      -0.0000    0.0000    0.0000   -0.0000    0.0000    0.0000    0.0000    0.0000   -0.0000   -0.0000
       43 FE2    4f2-      -0.0000    0.0000   -0.0000   -0.0000    0.0000    0.0000   -0.0000    0.0000   -0.0000   -0.0000
       44 FE2    4f1-       0.0000   -0.0000   -0.0000    0.0008   -0.0000   -0.0000    0.0000   -0.0067    0.0002    0.0000
       45 FE2    4f0        0.0000    0.0000    0.0000   -0.0000    0.0000    0.0002   -0.0000    0.0000   -0.0000   -0.0000
       46 FE2    4f1+      -0.0000   -0.0000    0.0000    0.0000    0.0008    0.0000    0.0000   -0.0002   -0.0067    0.0000
       47 FE2    4f2+       0.0000   -0.0000    0.0000   -0.0000   -0.0000   -0.0000    0.0000    0.0000    0.0000    0.0000
       48 FE2    4f3+      -0.0000    0.0000   -0.0000   -0.0000   -0.0000   -0.0000   -0.0000    0.0000    0.0000   -0.0000
 
          Orbital           11        12        13        14        15        16        17        18        19        20    
          Energy           -3.2459   -0.9858   -1.9255   -0.7374   -0.5844   -0.5844   -0.5475   -0.4786   -0.7374    1.2939
          Occ. No.          1.9996    1.9992    1.9983    1.0000    1.0000    1.0000    1.0000    1.0000    1.0000    0.0017
 
        1 O1     1s        -0.0001    0.0001    0.0320    0.0000   -0.0000   -0.0000    0.0000   -0.0000    0.0000    0.0002
        2 O1     2s        -0.0001    0.0028    0.9976    0.0000   -0.0000   -0.0000    0.0000   -0.0002    0.0000    0.0255
        3 O1     3s         0.0001   -0.0003   -0.0607    0.0000   -0.0000    0.0000    0.0000   -0.0005    0.0000    0.4213
        4 O1     2px        0.0000    0.0000   -0.0000   -0.0247   -0.0000    0.0000   -0.0001   -0.0000    0.0247    0.0000
        5 O1     3px        0.0000    0.0000    0.0000    0.0037   -0.0000    0.0000   -0.0001   -0.0000   -0.0037    0.0000
        6 O1     2py       -0.0000   -0.0000    0.0000   -0.6990   -0.0000    0.0000    0.0000    0.0000    0.6989   -0.0000
        7 O1     3py       -0.0000   -0.0000    0.0000    0.1040    0.0000   -0.0000    0.0000    0.0000   -0.1041   -0.0000
        8 O1     2pz       -0.0004    0.0085   -0.0013    0.0000    0.0000    0.0000   -0.0000   -0.0000   -0.0000    0.0010
        9 O1     3pz        0.0000   -0.0002   -0.0010   -0.0000    0.0000   -0.0000   -0.0000    0.0017   -0.0000   -0.0061
       10 O1     3d2-      -0.0000    0.0000    0.0001    0.0000    0.0000   -0.0000   -0.0000   -0.0000    0.0000   -0.0555
       11 O1     3d1-       0.0000    0.0000    0.0000    0.0010   -0.0000   -0.0000   -0.0000   -0.0000   -0.0010    0.0000
       12 O1     3d0        0.0000   -0.0000    0.0041    0.0000   -0.0000    0.0000   -0.0000   -0.0001    0.0000    0.4505
       13 O1     3d1+      -0.0000   -0.0000    0.0000    0.0000    0.0000   -0.0000    0.0000    0.0000   -0.0000    0.0000
       14 O1     3d2+       0.0000   -0.0000   -0.0021   -0.0000   -0.0000   -0.0000    0.0000    0.0000   -0.0000    0.7848
       15 FE2    1s        -0.0000   -0.0000   -0.0000   -0.0000   -0.0000   -0.0000   -0.0000    0.0000   -0.0000   -0.0000
       16 FE2    2s        -0.0007   -0.0085   -0.0000   -0.0000   -0.0000   -0.0000   -0.0000    0.0002   -0.0000   -0.0000
       17 FE2    3s        -0.0062   -0.0987    0.0002   -0.0000   -0.0000   -0.0000   -0.0000    0.0031   -0.0000   -0.0000
       18 FE2    4s         0.0001    0.0033   -0.0001    0.0000    0.0000    0.0000    0.0000   -0.9690    0.0000   -0.0017
       19 FE2    5s         0.0001   -0.0000   -0.0003   -0.0000   -0.0000   -0.0000   -0.0000    0.2381   -0.0000   -0.0034
       20 FE2    2px       -0.0000    0.0000   -0.0000    0.0000    0.0000   -0.0000    0.0000    0.0000    0.0000    0.0000
       21 FE2    3px       -0.0000   -0.0000   -0.0000    0.0000    0.0000   -0.0000    0.0006    0.0000    0.0000    0.0000
       22 FE2    4px        0.0000   -0.0000    0.0000    0.0001    0.0000   -0.0000    0.0038    0.0000    0.0001    0.0000
       23 FE2    5px        0.0000    0.0000    0.0000    0.0000    0.0000   -0.0000    0.0003    0.0000    0.0000    0.0000
       24 FE2    2py        0.0000   -0.0000   -0.0000    0.0000   -0.0000    0.0000   -0.0000    0.0000    0.0000   -0.0000
       25 FE2    3py        0.0000   -0.0000    0.0000    0.0004   -0.0000    0.0000   -0.0000    0.0000    0.0004   -0.0000
       26 FE2    4py       -0.0000    0.0000   -0.0000    0.0025   -0.0000    0.0000   -0.0001    0.0000    0.0029   -0.0000
       27 FE2    5py       -0.0000    0.0000   -0.0000    0.0001   -0.0000    0.0000   -0.0000    0.0000    0.0003   -0.0000
       28 FE2    2pz        0.0636   -0.0035    0.0000   -0.0000   -0.0000   -0.0000   -0.0000    0.0000   -0.0000   -0.0000
       29 FE2    3pz        0.9971   -0.0415    0.0003    0.0000   -0.0000   -0.0000    0.0000   -0.0001    0.0000   -0.0000
       30 FE2    4pz       -0.0007    0.0039   -0.0002    0.0000    0.0000    0.0000    0.0000   -0.0635    0.0000   -0.0021
       31 FE2    5pz       -0.0003    0.0006   -0.0001    0.0000    0.0000    0.0000    0.0000   -0.0051    0.0000   -0.0010
       32 FE2    3d2-       0.0000    0.0000   -0.0000   -0.0000   -0.0710    0.9957    0.0000   -0.0000   -0.0000    0.0000
       33 FE2    4d2-      -0.0000    0.0000   -0.0000    0.0000    0.0042   -0.0589   -0.0000    0.0000    0.0000    0.0000
       34 FE2    3d1-       0.0000    0.0000   -0.0000    0.7057   -0.0000    0.0000   -0.0353    0.0000    0.7058   -0.0000
       35 FE2    4d1-      -0.0000   -0.0000   -0.0000   -0.0363    0.0000   -0.0000    0.0018   -0.0000   -0.0361   -0.0000
       36 FE2    3d0        0.0412    0.9940   -0.0029   -0.0000    0.0000    0.0000    0.0000    0.0039   -0.0000   -0.0003
       37 FE2    4d0       -0.0005   -0.0150    0.0000   -0.0000   -0.0000   -0.0000   -0.0000    0.0126   -0.0000    0.0012
       38 FE2    3d1+      -0.0000   -0.0000    0.0000    0.0249    0.0000   -0.0000    0.9981    0.0000    0.0249    0.0000
       39 FE2    4d1+       0.0000    0.0000    0.0000   -0.0013   -0.0000    0.0000   -0.0512   -0.0000   -0.0013    0.0000
       40 FE2    3d2+      -0.0000   -0.0000    0.0000   -0.0000    0.9957    0.0710   -0.0000    0.0000   -0.0000   -0.0000
       41 FE2    4d2+       0.0000   -0.0000    0.0000    0.0000   -0.0589   -0.0042    0.0000   -0.0000    0.0000   -0.0000
       42 FE2    4f3-       0.0000    0.0000    0.0000    0.0000   -0.0000    0.0000   -0.0000    0.0000    0.0000    0.0000
       43 FE2    4f2-       0.0000   -0.0000    0.0000    0.0000    0.0000   -0.0001   -0.0000    0.0000    0.0000    0.0000
       44 FE2    4f1-       0.0000   -0.0000   -0.0000   -0.0001    0.0000   -0.0000    0.0000   -0.0000   -0.0001   -0.0000
       45 FE2    4f0        0.0031   -0.0004    0.0000    0.0000   -0.0000   -0.0000    0.0000   -0.0001    0.0000   -0.0001
       46 FE2    4f1+      -0.0000    0.0000    0.0000   -0.0000   -0.0000    0.0000   -0.0002   -0.0000   -0.0000    0.0000
       47 FE2    4f2+      -0.0000    0.0000   -0.0000    0.0000   -0.0001   -0.0000    0.0000   -0.0000    0.0000   -0.0000
       48 FE2    4f3+       0.0000   -0.0000   -0.0000    0.0000    0.0000   -0.0000    0.0000    0.0000    0.0000   -0.0000
 
          Orbital           21        22        23        24        25        26        27        28        29        30    
          Energy            0.5974    3.4500    0.1012    2.3044    2.3043   -0.1224    1.7982    2.8380    2.8381    0.5800
          Occ. No.          0.0008    0.0004    0.0002    0.0001    0.0001    0.0000    0.0000    0.0000    0.0000    0.0000
 
        1 O1     1s         0.0000   -0.0001   -0.0001    0.0000    0.0000    0.0011    0.0006    0.0000   -0.0000    0.0004
        2 O1     2s         0.0008   -0.0015   -0.0002    0.0000    0.0000    0.0152    0.0083    0.0000   -0.0000    0.0553
        3 O1     3s         0.0015   -0.0028   -0.0081    0.0000    0.0000    0.0333    0.0201    0.0000   -0.0000    0.9047
        4 O1     2px        0.0000    0.0000    0.0000   -0.0011   -0.0000   -0.0000   -0.0000    0.0011    0.0001    0.0000
        5 O1     3px        0.0000    0.0000   -0.0000   -0.0043   -0.0002   -0.0000   -0.0000    0.0077    0.0003    0.0000
        6 O1     2py       -0.0000   -0.0000   -0.0000    0.0000   -0.0009    0.0000    0.0000   -0.0000    0.0015   -0.0000
        7 O1     3py       -0.0000   -0.0000    0.0000    0.0002   -0.0044    0.0000    0.0000   -0.0003    0.0076   -0.0000
        8 O1     2pz       -0.0011    0.0015    0.1146   -0.0000   -0.0000   -0.0169   -0.0091    0.0000    0.0000    0.0026
        9 O1     3pz        0.0018    0.0052    0.9986   -0.0000   -0.0000   -0.0502   -0.0360    0.0000    0.0000    0.0084
       10 O1     3d2-      -0.0002    0.0000   -0.0005   -0.0000    0.0000    0.0001    0.0001   -0.0000    0.0000    0.0250
       11 O1     3d1-       0.0000    0.0000    0.0000   -0.0000    0.0003   -0.0000   -0.0000    0.0000   -0.0009   -0.0000
       12 O1     3d0        0.0019   -0.0004    0.0044   -0.0000    0.0000    0.0042    0.0018   -0.0000   -0.0000   -0.2299
       13 O1     3d1+      -0.0000   -0.0000   -0.0000    0.0003    0.0000    0.0000   -0.0000   -0.0009   -0.0000   -0.0000
       14 O1     3d2+       0.0034   -0.0002    0.0075    0.0000    0.0000   -0.0015   -0.0015    0.0000    0.0000   -0.3533
       15 FE2    1s         0.0000    0.0000    0.0000   -0.0000    0.0000   -0.0000   -0.0000    0.0000    0.0000    0.0000
       16 FE2    2s         0.0002    0.0000    0.0001   -0.0000    0.0000    0.0000   -0.0000    0.0000    0.0000    0.0000
       17 FE2    3s         0.0023    0.0001    0.0008   -0.0000    0.0000    0.0003    0.0000    0.0000   -0.0000    0.0000
       18 FE2    4s        -0.0171    0.0053    0.0282   -0.0000   -0.0000   -0.2115   -0.0338   -0.0000   -0.0000    0.0004
       19 FE2    5s         0.0135    0.0002    0.0406    0.0000   -0.0000   -0.9346   -0.0765   -0.0000   -0.0000    0.0027
       20 FE2    2px       -0.0000   -0.0000    0.0000    0.0001    0.0000    0.0000   -0.0000    0.0003    0.0000   -0.0000
       21 FE2    3px       -0.0000   -0.0000   -0.0000    0.0024    0.0001    0.0000   -0.0000    0.0062    0.0002   -0.0000
       22 FE2    4px        0.0000    0.0000   -0.0000   -0.3511   -0.0124    0.0000   -0.0000    0.0990    0.0035   -0.0000
       23 FE2    5px        0.0000   -0.0000   -0.0000    0.7003    0.0247    0.0000    0.0000   -0.6312   -0.0223   -0.0000
       24 FE2    2py       -0.0000    0.0000   -0.0000   -0.0000    0.0001   -0.0000    0.0000   -0.0000    0.0003    0.0000
       25 FE2    3py        0.0000    0.0000    0.0000   -0.0001    0.0024   -0.0000    0.0000   -0.0002    0.0062    0.0000
       26 FE2    4py        0.0000   -0.0000    0.0000    0.0124   -0.3511   -0.0000    0.0000   -0.0035    0.0990    0.0000
       27 FE2    5py       -0.0000    0.0000    0.0000   -0.0247    0.7003    0.0000   -0.0000    0.0223   -0.6312    0.0000
       28 FE2    2pz       -0.0000    0.0004    0.0000    0.0000   -0.0000   -0.0000    0.0001    0.0000   -0.0000   -0.0000
       29 FE2    3pz        0.0002    0.0030    0.0009    0.0000   -0.0000   -0.0003    0.0007    0.0000   -0.0000   -0.0000
       30 FE2    4pz        0.1168   -0.1068    0.0260   -0.0000    0.0000   -0.2970    0.3006    0.0000   -0.0000   -0.0148
       31 FE2    5pz       -0.0153    0.2300    0.0129    0.0000   -0.0000   -0.0268   -0.9161   -0.0000    0.0000   -0.0028
       32 FE2    3d2-       0.0000   -0.0000    0.0000   -0.0000   -0.0000    0.0000    0.0000   -0.0000    0.0000    0.0000
       33 FE2    4d2-      -0.0000   -0.0000    0.0000    0.0000   -0.0000    0.0000    0.0000   -0.0000    0.0000    0.0000
       34 FE2    3d1-      -0.0000   -0.0000   -0.0000   -0.0001    0.0021   -0.0000    0.0000   -0.0001    0.0018    0.0000
       35 FE2    4d1-      -0.0000   -0.0000    0.0000   -0.0006    0.0170   -0.0000    0.0000   -0.0013    0.0365    0.0000
       36 FE2    3d0       -0.0152   -0.0007    0.0035   -0.0000   -0.0000    0.0010   -0.0002    0.0000   -0.0000   -0.0004
       37 FE2    4d0       -0.9921   -0.0485    0.0275   -0.0000   -0.0000   -0.0440    0.0396    0.0000   -0.0000   -0.0053
       38 FE2    3d1+       0.0000    0.0000    0.0000    0.0021    0.0001    0.0000   -0.0000    0.0018    0.0001   -0.0000
       39 FE2    4d1+       0.0000    0.0000   -0.0000    0.0170    0.0006    0.0000   -0.0000    0.0365    0.0013   -0.0000
       40 FE2    3d2+      -0.0000    0.0000   -0.0000   -0.0000   -0.0000   -0.0000   -0.0000    0.0000    0.0000   -0.0000
       41 FE2    4d2+       0.0000    0.0000   -0.0000   -0.0000   -0.0000   -0.0000   -0.0000    0.0000    0.0000   -0.0001
       42 FE2    4f3-       0.0000    0.0000   -0.0000    0.0000   -0.0000   -0.0000   -0.0000    0.0000   -0.0000    0.0000
       43 FE2    4f2-       0.0000   -0.0000    0.0000    0.0000   -0.0000   -0.0000   -0.0000    0.0000   -0.0000    0.0000
       44 FE2    4f1-       0.0000   -0.0000    0.0000   -0.0219    0.6203   -0.0000    0.0000   -0.0271    0.7676    0.0000
       45 FE2    4f0        0.0333   -0.9661   -0.0011    0.0000   -0.0000    0.0281   -0.2532    0.0000   -0.0000    0.0017
       46 FE2    4f1+      -0.0000    0.0000    0.0000    0.6203    0.0219   -0.0000   -0.0000    0.7676    0.0271   -0.0000
       47 FE2    4f2+      -0.0000    0.0000   -0.0000   -0.0000   -0.0000    0.0000    0.0000   -0.0000   -0.0000   -0.0000
       48 FE2    4f3+       0.0000   -0.0000   -0.0000   -0.0000   -0.0000   -0.0000   -0.0000   -0.0000   -0.0000    0.0000
 
          Orbital           31        32        33        34        35        36        37        38        39        40    
          Energy           -0.0739   -0.6193   -0.0134   -0.0133    0.0991    0.1354    0.6176    0.6172    0.7081    1.4915
          Occ. No.          0.0000    0.0000    0.0000    0.0000    0.0000    0.0000    0.0000    0.0000    0.0000    0.0000
 
        1 O1     1s         0.0002    0.0000    0.0000    0.0000   -0.0000    0.0000    0.0000   -0.0000   -0.0000    0.0006
        2 O1     2s         0.0023    0.0000    0.0000    0.0000   -0.0000    0.0000    0.0000   -0.0001   -0.0000    0.0032
        3 O1     3s        -0.0067   -0.0000   -0.0000   -0.0000    0.0000   -0.0000   -0.0000    0.0002    0.0000   -0.0215
        4 O1     2px       -0.0000    0.9968    0.0023    0.0000   -0.0052   -0.0724    0.0003    0.0000   -0.0002   -0.0000
        5 O1     3px       -0.0000    0.0724   -0.0010    0.0001   -0.0351    0.9967   -0.0040   -0.0000   -0.0162   -0.0000
        6 O1     2py        0.0000   -0.0352   -0.0001    0.0000   -0.1471    0.0025    0.0000    0.0000    0.0001    0.0000
        7 O1     3py        0.0000   -0.0026   -0.0000    0.0041   -0.9885   -0.0354    0.0003    0.0000    0.0006   -0.0000
        8 O1     2pz       -0.0043   -0.0000   -0.0000   -0.0000    0.0000   -0.0000   -0.0000    0.0000    0.0000   -0.0014
        9 O1     3pz       -0.0188   -0.0000    0.0000    0.0000   -0.0000    0.0000    0.0000   -0.0000   -0.0000    0.0008
       10 O1     3d2-      -0.0010    0.0000   -0.0000    0.0000   -0.0000   -0.0001   -0.0065    0.0005    0.0025   -0.0356
       11 O1     3d1-       0.0000    0.0001   -0.0000   -0.0000    0.0010   -0.0003    0.0059    0.0026    0.0285    0.0004
       12 O1     3d0       -0.0113   -0.0000   -0.0000   -0.0000    0.0000   -0.0000   -0.0000    0.0130    0.0007   -0.8625
       13 O1     3d1+       0.0000   -0.0016    0.0000   -0.0000    0.0000   -0.0008   -0.0013   -0.0003   -0.0226   -0.0001
       14 O1     3d2+       0.0142    0.0000    0.0000    0.0000   -0.0000   -0.0000   -0.0005   -0.0075   -0.0002    0.5039
       15 FE2    1s        -0.0000   -0.0000    0.0000    0.0000   -0.0000    0.0000    0.0000   -0.0000   -0.0000    0.0000
       16 FE2    2s         0.0000   -0.0000   -0.0000   -0.0000    0.0000   -0.0000    0.0000    0.0000    0.0000   -0.0000
       17 FE2    3s         0.0001   -0.0000   -0.0000   -0.0000    0.0000    0.0000    0.0000    0.0000    0.0000   -0.0000
       18 FE2    4s         0.1241   -0.0000   -0.0000   -0.0000    0.0000   -0.0000    0.0000    0.0001    0.0000   -0.0016
       19 FE2    5s         0.2666   -0.0000   -0.0000   -0.0000    0.0000   -0.0000    0.0000    0.0001    0.0000   -0.0039
       20 FE2    2px       -0.0000   -0.0000   -0.0000    0.0000    0.0000   -0.0000    0.0000   -0.0000   -0.0000   -0.0000
       21 FE2    3px       -0.0000   -0.0000   -0.0037    0.0001    0.0000   -0.0001    0.0000   -0.0000   -0.0004   -0.0000
       22 FE2    4px       -0.0000   -0.0004   -0.9303    0.0328    0.0006   -0.0111    0.0000    0.0000   -0.0088   -0.0000
       23 FE2    5px        0.0000   -0.0001   -0.3316    0.0117    0.0002   -0.0034    0.0000    0.0000    0.0071    0.0000
       24 FE2    2py        0.0000    0.0000    0.0000    0.0000    0.0000    0.0000   -0.0000    0.0000    0.0000    0.0000
       25 FE2    3py        0.0000    0.0000    0.0001    0.0037    0.0001    0.0000   -0.0000    0.0000    0.0000    0.0000
       26 FE2    4py        0.0000    0.0000    0.0328    0.9303    0.0140    0.0004    0.0000    0.0000    0.0003    0.0000
       27 FE2    5py        0.0000    0.0000    0.0117    0.3316    0.0046    0.0001    0.0000   -0.0000   -0.0002   -0.0000
       28 FE2    2pz       -0.0000   -0.0000    0.0000    0.0000   -0.0000   -0.0000    0.0000   -0.0000   -0.0000    0.0000
       29 FE2    3pz       -0.0009   -0.0000    0.0000    0.0000   -0.0000    0.0000    0.0000   -0.0000   -0.0000    0.0000
       30 FE2    4pz       -0.8908   -0.0000    0.0000    0.0000   -0.0000    0.0000    0.0000   -0.0004   -0.0000    0.0167
       31 FE2    5pz       -0.3321   -0.0000    0.0000    0.0000   -0.0000    0.0000    0.0000   -0.0001   -0.0000    0.0062
       32 FE2    3d2-      -0.0000   -0.0000   -0.0000   -0.0000    0.0000    0.0002    0.0589    0.0041   -0.0001    0.0001
       33 FE2    4d2-      -0.0000   -0.0000   -0.0000   -0.0000    0.0002    0.0040    0.9957    0.0700   -0.0024    0.0010
       34 FE2    3d1-      -0.0000    0.0000   -0.0001   -0.0030    0.0004    0.0001    0.0000   -0.0000   -0.0018   -0.0000
       35 FE2    4d1-      -0.0000    0.0000    0.0004    0.0124    0.0000    0.0018    0.0001   -0.0005   -0.0342   -0.0001
       36 FE2    3d0        0.0017   -0.0000    0.0000   -0.0000   -0.0000    0.0000   -0.0000   -0.0000   -0.0000    0.0001
       37 FE2    4d0       -0.0978   -0.0000    0.0000    0.0000   -0.0000    0.0000    0.0000   -0.0001   -0.0000    0.0033
       38 FE2    3d1+       0.0000   -0.0001    0.0030   -0.0001    0.0000    0.0000    0.0000    0.0001    0.0505    0.0000
       39 FE2    4d1+       0.0000   -0.0001   -0.0125    0.0004    0.0000    0.0093    0.0004    0.0010    0.9849    0.0007
       40 FE2    3d2+       0.0000   -0.0000   -0.0000   -0.0000    0.0000    0.0000    0.0041   -0.0589    0.0001   -0.0009
       41 FE2    4d2+       0.0001   -0.0000   -0.0000   -0.0000    0.0000    0.0003    0.0700   -0.9957    0.0009   -0.0150
       42 FE2    4f3-       0.0000    0.0000    0.0000   -0.0002    0.0002    0.0003    0.0006   -0.0004    0.0796   -0.0003
       43 FE2    4f2-      -0.0000    0.0000    0.0001    0.0000   -0.0000    0.0001   -0.0013    0.0003    0.0032   -0.0004
       44 FE2    4f1-       0.0000    0.0000    0.0054    0.1520    0.0044    0.0001   -0.0000    0.0000    0.0014    0.0000
       45 FE2    4f0        0.0253    0.0000   -0.0000   -0.0000    0.0000   -0.0000    0.0000    0.0000    0.0000   -0.0007
       46 FE2    4f1+      -0.0000   -0.0002   -0.1520    0.0054    0.0002   -0.0044   -0.0000   -0.0000   -0.0401   -0.0000
       47 FE2    4f2+       0.0000    0.0000    0.0000   -0.0000   -0.0000   -0.0006    0.0006   -0.0002    0.0013    0.0061
       48 FE2    4f3+       0.0000   -0.0000    0.0000    0.0000   -0.0000    0.0008   -0.0133    0.0003   -0.1296   -0.0014
 
          Orbital           41        42        43        44        45        46    
          Energy            0.6470    2.1855    1.4895    3.5748    3.4606    1.6678
          Occ. No.          0.0000    0.0000    0.0000    0.0000    0.0000    0.0000
 
        1 O1     1s         0.0000    0.0000    0.0000   -0.0000    0.0000    0.0000
        2 O1     2s         0.0000    0.0000    0.0000   -0.0000    0.0000    0.0000
        3 O1     3s        -0.0000   -0.0000   -0.0000    0.0001   -0.0001   -0.0000
        4 O1     2px        0.0001    0.0012    0.0006    0.0001    0.0002   -0.0000
        5 O1     3px       -0.0023    0.0005    0.0003   -0.0002   -0.0030   -0.0001
        6 O1     2py       -0.0012   -0.0001   -0.0002   -0.0002   -0.0004   -0.0015
        7 O1     3py       -0.0072   -0.0000   -0.0001   -0.0001   -0.0004   -0.0006
        8 O1     2pz       -0.0000   -0.0000   -0.0000    0.0000   -0.0000   -0.0000
        9 O1     3pz        0.0000    0.0000    0.0000   -0.0000    0.0000    0.0000
       10 O1     3d2-       0.0011   -0.2883    0.9245   -0.0090   -0.0174   -0.1117
       11 O1     3d1-      -0.0005   -0.0605   -0.0987   -0.0889   -0.1897   -0.9527
       12 O1     3d0       -0.0000   -0.0000   -0.0000    0.0031   -0.0037   -0.0000
       13 O1     3d1+      -0.0048    0.7645    0.3596    0.0358    0.0690   -0.0072
       14 O1     3d2+       0.0001   -0.0204    0.0654   -0.0025    0.0009   -0.0079
       15 FE2    1s         0.0000    0.0000    0.0000   -0.0000    0.0000    0.0000
       16 FE2    2s         0.0000    0.0000    0.0000    0.0000   -0.0000    0.0000
       17 FE2    3s         0.0000    0.0000    0.0000   -0.0000    0.0000    0.0000
       18 FE2    4s         0.0000    0.0000    0.0000    0.0000   -0.0000    0.0000
       19 FE2    5s         0.0000    0.0000    0.0000    0.0000   -0.0000    0.0000
       20 FE2    2px       -0.0000   -0.0000   -0.0000   -0.0000   -0.0000    0.0000
       21 FE2    3px       -0.0000   -0.0000   -0.0000   -0.0000   -0.0000    0.0000
       22 FE2    4px       -0.0002    0.0005    0.0002   -0.0000   -0.0010   -0.0000
       23 FE2    5px        0.0002    0.0003    0.0001    0.0000    0.0008   -0.0000
       24 FE2    2py       -0.0000    0.0000    0.0000   -0.0000   -0.0000    0.0000
       25 FE2    3py       -0.0004    0.0000    0.0000   -0.0000   -0.0000    0.0000
       26 FE2    4py       -0.0090   -0.0000   -0.0001   -0.0001   -0.0005   -0.0006
       27 FE2    5py        0.0071   -0.0000   -0.0000    0.0002    0.0003   -0.0003
       28 FE2    2pz        0.0000    0.0000    0.0000    0.0000   -0.0000    0.0000
       29 FE2    3pz        0.0000    0.0000    0.0000   -0.0000    0.0000    0.0000
       30 FE2    4pz        0.0000    0.0000    0.0000   -0.0000    0.0001    0.0000
       31 FE2    5pz        0.0000    0.0000    0.0000   -0.0000    0.0000    0.0000
       32 FE2    3d2-      -0.0000    0.0000    0.0004    0.0003    0.0007    0.0001
       33 FE2    4d2-      -0.0007   -0.0007    0.0066    0.0047    0.0124    0.0019
       34 FE2    3d1-       0.0511   -0.0000   -0.0001    0.0011    0.0021   -0.0006
       35 FE2    4d1-       0.9960   -0.0008   -0.0013    0.0214    0.0411   -0.0123
       36 FE2    3d0       -0.0000   -0.0000   -0.0000   -0.0000    0.0000   -0.0000
       37 FE2    4d0        0.0000    0.0000    0.0000   -0.0000    0.0000    0.0000
       38 FE2    3d1+       0.0014    0.0005    0.0002    0.0003    0.0059   -0.0000
       39 FE2    4d1+       0.0279    0.0100    0.0047    0.0054    0.1143   -0.0002
       40 FE2    3d2+      -0.0000   -0.0000    0.0000    0.0001   -0.0000   -0.0001
       41 FE2    4d2+      -0.0006   -0.0003    0.0001   -0.0002    0.0007   -0.0024
       42 FE2    4f3-      -0.0040   -0.0066   -0.0019    0.5879    0.0432   -0.0121
       43 FE2    4f2-       0.0014    0.5674   -0.0270   -0.0610    0.0121   -0.1750
       44 FE2    4f1-      -0.0406    0.0000    0.0000   -0.0009   -0.0018    0.0000
       45 FE2    4f0        0.0000    0.0000    0.0000    0.0000   -0.0000    0.0000
       46 FE2    4f1+      -0.0011   -0.0000   -0.0000   -0.0002   -0.0046   -0.0000
       47 FE2    4f2+       0.0010    0.0405   -0.0012    0.7068   -0.5053   -0.0080
       48 FE2    4f3+      -0.0526   -0.0681   -0.0342    0.3759    0.8286   -0.2210
--
 
 
++    Molecular properties:
      ---------------------
 
      Charge (e):
                      =    2.0000
      Dipole Moment (Debye):
      Origin of the operator (Ang)=    0.0000    0.0000    0.0000
                   X= -2.9875E-10               Y=  9.4056E-12               Z=  7.1433E+00           Total=  7.1433E+00
      Center of Charge (Ang)
                     X=   -0.00000000               Y=    0.00000000               Z=    0.74359567
      Quadrupole Moment (Debye*Ang):
      Origin of the operator (Ang)=    0.0000    0.0000   -0.9327
                  XX= -1.3865E+01              XY= -2.8418E-02              XZ= -7.6010E-10              YY= -1.4669E+01
                  YZ= -2.6416E-11              ZZ=  1.0798E+02
      In traceless form (Debye*Ang)
                  XX= -6.0521E+01              XY= -4.2627E-02              XZ= -1.1402E-09              YY= -6.1726E+01
                  YZ= -3.9624E-11              ZZ=  1.2225E+02
--
 
 
  Input file to MOLDEN was generated!
 
 ###############################################################################
 ###############################################################################
 ###                                                                         ###
 ###                                                                         ###
 ###    RunFile label nBas                                                   ###
 ###    was used       86 times                                              ###
 ###                                                                         ###
 ###                                                                         ###
 ###############################################################################
 ###############################################################################
--- Stop Module: scf at Sun Dec 22 16:44:20 2024 /rc=_RC_ALL_IS_WELL_ ---
*** files: 6.24.LprOrb 6.24.LoProp.molden 6.24.scf.molden 6.24.scf.h5 6.24.UhfOrb 6.24.UnaOrb xmldump
    saved to directory /home/grierjones/DDCASPT2/iron_oxo_DDCASPT2/cluster/6.24

>>> COPY /tmp/6.24/6.24.scf.h5 /home/grierjones/DDCASPT2/iron_oxo_DDCASPT2/cluster/6.24/

*** symbolic link created: INPORB -> 6.24.UnaOrb
--- Start Module: rasscf at Sun Dec 22 16:44:20 2024 ---
 
()()()()()()()()()()()()()()()()()()()()()()()()()()()()()()()()()()()()()()()()()()()()()()()()()()

                                              &RASSCF

                                   only a single process is used
                       available to each process: 2.0 GB of memory, 1 thread?
()()()()()()()()()()()()()()()()()()()()()()()()()()()()()()()()()()()()()()()()()()()()()()()()()()
 
 ###############################################################################
 ###############################################################################
 ###                                                                         ###
 ###                                                                         ###
 ###    LUMORB input error.                                                  ###
 ###                                                                         ###
 ###                                                                         ###
 ###############################################################################
 ###############################################################################
  Keyword LUMORB used with file name StartOrbFile=
 /home/grierjones/DDCASPT2/iron_oxo_DDCASPT2/cluster/6.23/6.23.RasOrb           
                                                  
  but that file cannot be used. Perhaps it does
  not exist?
 
 *************** WARNING ****************
 ###############################################################################
 ###############################################################################
 ###                                                                         ###
 ###                                                                         ###
 ###    Too many macro-iterations.                                           ###
 ###                                                                         ###
 ###                                                                         ###
 ###############################################################################
 ###############################################################################
 Too many macro-iterations requested.
 Reset to maximum, new MAXIT=     200
 ****************************************
 
 *************** WARNING ****************
 ###############################################################################
 ###############################################################################
 ###                                                                         ###
 ###                                                                         ###
 ###    Too many SX-iterations.                                              ###
 ###                                                                         ###
 ###                                                                         ###
 ###############################################################################
 ###############################################################################
 Too many SX-iterations requested.
 Reset to maximum, new ITMAX=     100
 ****************************************
 
      Header of the ONEINT file:
      --------------------------
      
      Integrals generated by seward 4.2.0  , Sun Dec 22 16:44:18 2024
 
 
      OrdInt status: non-squared
 
 
      Cartesian coordinates in Angstrom:
      -----------------------------------------------------
      No.  Label        X            Y            Z        
      -----------------------------------------------------
       1   O1         0.00000000   0.00000000   3.92044000
       2   FE2        0.00000000   0.00000000  -2.32044000
      -----------------------------------------------------
      Nuclear repulsion energy =   17.63675312
 
++    Wave function specifications:
      -----------------------------
 
      Number of closed shell electrons          22
      Number of electrons in active shells      10
      Max number of holes in RAS1 space          0
      Max nr of electrons in RAS3 space          0
      Number of inactive orbitals               11
      Number of active orbitals                 14
      Number of secondary orbitals              23
      Spin quantum number                      2.0
      State symmetry                             1
--
 
++    Orbital specifications:
      -----------------------
 
      Symmetry species                           1
                                                 a
      Frozen orbitals                            0
      Inactive orbitals                         11
      Active orbitals                           14
      RAS1 orbitals                              0
      RAS2 orbitals                             14
      RAS3 orbitals                              0
      Secondary orbitals                        23
      Deleted orbitals                           0
      Number of basis functions                 48
--
 
++    CI expansion specifications:
      ----------------------------
 
      Number of CSFs                        975975
      Number of determinants               1249248
      Number of root(s) required                 1
      Root chosen for geometry opt.              1
      CI root used                               1
         
      highest root included in the CI            1
      max. size of the explicit Hamiltonian    200
--
 
++    Optimization specifications:
      ----------------------------
 
      RASSCF algorithm: Conventional
      Maximum number of macro iterations       200
      Maximum number of SX iterations          100
      Threshold for RASSCF energy            0.100E-07
      Threshold for max MO rotation          0.100E+00
      Threshold for max BLB element          0.100E-03
      Level shift parameter                  0.500E+00
      Make Quasi-Newton update
--
 
 RdVec: File 
 /home/grierjones/DDCASPT2/iron_oxo_DDCASPT2/cluster/6.23/6.23.RasOrb 
  not found!
[ process      0]: xquit (rc =    128): _INTERNAL_ERROR_
abort: 
--- Stop Module: rasscf at Sun Dec 22 16:44:20 2024 /rc=_RC_FLOATING_EXCEPTION_ ---
*** files: xmldump
    saved to directory /home/grierjones/DDCASPT2/iron_oxo_DDCASPT2/cluster/6.24

.########################.
.# Non-zero return code #.
.########################.

    Timing: Wall=1.68 User=1.39 System=0.29
************************************
*** WorkDir at /tmp/6.24 cleaned ***
************************************
