   This run of MOLCAS is using the pymolcas driver

                             OPE
                             OPE          NMOL  CASOP  ENMOLC A   SO
                 OPE        NMOLC        AS  OP EN  MO LC     AS  OP
                OPENM       OL CA        SO  PE NM  OL CA     SOP EN
                OP EN      MO   LC       AS  OP ENMOL  CASO   PENMOL
                OP  EN     MO   LC       AS  OP EN     MO     LC ASO
               OP   E  NMOL  C  AS       OP  EN MO     LC     AS  OP
               OP  E   NMO   LC AS        OPEN  MO     LCASOP EN   M
               O  PEN   MO  LCA  SO
            OPE   NMO   L   CAS    OP
        OPENMOL  CASOP     ENMOL   CASOPE
     OPENMOLCA   SOPENMOLCASOPEN   MOLCASOPE
    OPENMOLCAS   OP           EN   MOL    CAS
    OPENMOLCAS       OP  ENM        O     LCA
    OPENMOLCAS    OPEN  MOLCASO     P  E  NMO
    OPENMOLCAS     OP               E  N  MOL
    OPENMOLCA   SO           PENM   O  L  CAS    OPEN    MO    LCAS
    OPENMOLCA   SOP           ENM   O  L  CAS   OP  EN  MOLC  AS   O
    OPENMOLCA   SOPE           NM      O  LCA   S      OP  EN MO
    OPENMOLC                AS         O  PEN   M      OL  CA  SOPE
    OPENMO        LCASOPE  NMOL        C  ASO   P      ENMOLC     AS
    OPE     NMO      LCA  SO     P     E   NM   OL  CA SO  PE N   MO
          OPENMOLCA            SOPE   NMO        LCAS  O    P  ENMO
     OPENMOLCASOPENMOLCASOPENMOLCASOPENMOLCA
        OPENMOLCASOPENMOLCASOPENMOLCASOPE
            OPENMOLCASOPENMOLCASOPENM
               OPENMOLCASOPENMOLCA        version: 44d3b5344-dirty
                   OPENMOLCASO
                       OPE                tag:

 OpenMolcas is free software; you can redistribute it and/or modify it
 under the terms of the GNU Lesser General Public License version 2.1.
 OpenMolcas is distributed in the hope that it will be useful, but it
 is provided "as is" and without any express or implied warranties.
 For more details see the full text of the license in the file
 LICENSE or in <http://www.gnu.org/licenses/>.

                 Copyright (C) The OpenMolcas Authors
           For the author list and the recommended citation,
                   consult the file CONTRIBUTORS.md

           *************************************************
           * pymolcas version py2.28                       *
           *   build c4a6d18ded8cb6cad61d2372a9abd97c      *
           *   (after the EMIL interpreter by V. Veryazov) *
           *************************************************

configuration info
------------------
C Compiler ID: GNU
C flags: -std=gnu99
Fortran Compiler ID: Intel
Fortran flags: -fpp -i8 -r8 -heap-arrays
Definitions: _MOLCAS_;_I8_;_LINUX_
Parallel: OFF (GA=OFF)


   ------------------------------------------------------------------------------
  |
  |              Project: O3_113
  |       Submitted from: /home/grierjones/DDCASPT2/ozone/basis_sets/MB/O3/O3_113
  |         Scratch area: /tmp/MOLCASTMP/O3_113
  |      Save outputs to: /home/grierjones/DDCASPT2/ozone/basis_sets/MB/O3/O3_113
  |               Molcas: /home/grierjones/Test/build
  |
  | Scratch area is empty
  |
  |       MOLCAS_DRIVER = /usr/local/pymolcas
  | MOLCAS_KEEP_WORKDIR = NO
  |  MOLCAS_NEW_WORKDIR = YES
  |       MOLCAS_NPROCS = 1
  |       MOLCAS_SOURCE = /home/grierjones/Test/build
  |    MOLCAS_STRUCTURE = 0
  |
   ------------------------------------------------------------------------------

++ ---------   Input file   ---------

&GATEWAY
coord=O3_113.xyz
Basis = ANO-RCC-MB
Group = nosymm
Expert
End of Input

&SEWARD
End of Input

&MOTRA
Frozen=0

>>> COPY $WorkDir/GMJ_one_int_indx.csv $CurrDir/O3_113.GMJ_one_int_indx.csv

>>> COPY $WorkDir/GMJ_one_int.csv $CurrDir/O3_113.GMJ_one_int.csv

>>> COPY $WorkDir/GMJ_two_int_indx.csv $CurrDir/O3_113.GMJ_two_int_indx.csv

>>> COPY $WorkDir/GMJ_two_int.csv $CurrDir/O3_113.GMJ_two_int.csv

&SCF

>>> COPY $WorkDir/O3_113.scf.h5 $CurrDir/

&RASSCF
Title= RASSCF
FileOrb
/home/grierjones/DDCASPT2/ozone/basis_sets/MB/O3/O3_112/O3_112.RasOrb

NACTEL
4 0 0
Inactive
10
RAS2
3
Symmetry
1
Spin
1
orblisting
all
ITERation
200 100
CIMX
200
SDAV
500
PRWF
0
PRSD

>>> COPY $WorkDir/O3_113.rasscf.h5 $CurrDir/

>>> COPY $WorkDir/GMJ_Fock_MO.csv $CurrDir/O3_113.GMJ_Fock_MO.csv

&CASPT2
Frozen
0
Imaginary Shift
0.0

>>> FOREACH i IN (B,E,F,G,H)

  >>> FOREACH j IN (P,M)

    >>> IF (-FILE GMJ_e2_${i}_${j}.csv)

      >>> COPY $WorkDir/GMJ_RHS_${i}_${j}.csv $CurrDir/GMJ_RHS_${i}_${j}.csv

      >>> COPY $WorkDir/GMJ_IVECW_${i}_${j}.csv $CurrDir/GMJ_IVECW_${i}_${j}.csv

      >>> COPY $WorkDir/GMJ_e2_${i}_${j}.csv $CurrDir/GMJ_e2_${i}_${j}.csv

    >>> END IF

  >>> END FOREACH

>>> END FOREACH

>>> FOREACH i IN (A,C,D)

  >>> IF (-FILE GMJ_e2_$i.csv)

    >>> COPY $WorkDir/GMJ_RHS_$i.csv $CurrDir/GMJ_RHS_$i.csv

    >>> COPY $WorkDir/GMJ_IVECW_$i.csv $CurrDir/GMJ_IVECW_$i.csv

    >>> COPY $WorkDir/GMJ_e2_$i.csv $CurrDir/GMJ_e2_$i.csv

  >>> END IF

>>> END FOREACH

-- ----------------------------------

--- Start Module: gateway at Tue Jul 30 20:43:08 2024 ---
 
()()()()()()()()()()()()()()()()()()()()()()()()()()()()()()()()()()()()()()()()()()()()()()()()()()

                                              &GATEWAY

                                   only a single process is used
                       available to each process: 2.0 GB of memory, 1 thread?
()()()()()()()()()()()()()()()()()()()()()()()()()()()()()()()()()()()()()()()()()()()()()()()()()()
 
 ###############################################################################
 ###############################################################################
 ###                                                                         ###
 ###                                                                         ###
 ###                                                                         ###
 ###    WARNING: EXPERT option is ON!                                        ###
 ###                                                                         ###
 ###                                                                         ###
 ###############################################################################
 ###############################################################################
 
++    Symmetry information:
      ---------------------
 
                    Character Table for C1 
 
                             E  
                    a        1  x, y, xy, Rz, z, xz, Ry, yz, Rx, I
--
 
 
++    Basis set information:
      ----------------------
 
 
      Basis set label: O.ANO-RCC...2S1P.
 
      Electronic valence basis set:
      ------------------
      Associated Effective Charge   8.000000 au
      Associated Actual Charge      8.000000 au
      Nuclear Model: Point charge
 
      Shell  nPrim  nBasis  Cartesian Spherical Contaminant
         s      14       2        X                  
         p       9       1        X                  
--
 
 
++    Molecular structure info:
      -------------------------
 
                    ************************************************ 
                    **** Cartesian Coordinates / Bohr, Angstrom **** 
                    ************************************************ 
 
     Center  Label                x              y              z                     x              y              z
        1      O1               1.332966       2.013892       0.000000              0.705375       1.065706       0.000000
        2      O2               0.000000       0.000000       0.000000              0.000000       0.000000       0.000000
        3      O3               1.332966      -2.013892       0.000000              0.705375      -1.065706       0.000000
 
                    *************************************** 
                    *    InterNuclear Distances / Bohr    * 
                    *************************************** 
 
               1 O1            2 O2            3 O3    
    1 O1       0.000000
    2 O2       2.415069        0.000000
    3 O3       4.027785        2.415069        0.000000
 
                    ******************************************* 
                    *    InterNuclear Distances / Angstrom    * 
                    ******************************************* 
 
               1 O1            2 O2            3 O3    
    1 O1       0.000000
    2 O2       1.278000        0.000000
    3 O3       2.131412        1.278000        0.000000
 
                    ************************************** 
                    *    Valence Bond Angles / Degree    * 
                    ************************************** 
                          Atom centers                 Phi
                      1 O1       2 O2       3 O3       113.00
--
 
 
            Nuclear Potential Energy             68.89017480 au
 
 ###############################################################################
 ###############################################################################
 ###                                                                         ###
 ###                                                                         ###
 ###    There were warnings during the execution                             ###
 ###    Please, check the output with care!                                  ###
 ###                                                                         ###
 ###                                                                         ###
 ###############################################################################
 ###############################################################################
--- Stop Module: gateway at Tue Jul 30 20:43:08 2024 /rc=_RC_ALL_IS_WELL_ ---
*** files: xmldump
    saved to directory /home/grierjones/DDCASPT2/ozone/basis_sets/MB/O3/O3_113

--- Start Module: seward at Tue Jul 30 20:43:08 2024 ---
 
()()()()()()()()()()()()()()()()()()()()()()()()()()()()()()()()()()()()()()()()()()()()()()()()()()

                                              &SEWARD

                                   only a single process is used
                       available to each process: 2.0 GB of memory, 1 thread?
()()()()()()()()()()()()()()()()()()()()()()()()()()()()()()()()()()()()()()()()()()()()()()()()()()
 
 ###############################################################################
 ###############################################################################
 ###                                                                         ###
 ###                                                                         ###
 ###                                                                         ###
 ###    WARNING: EXPERT option is ON!                                        ###
 ###                                                                         ###
 ###                                                                         ###
 ###############################################################################
 ###############################################################################
               SEWARD will generate:
                  Multipole Moment integrals up to order  2
                  Kinetic Energy integrals
                  Nuclear Attraction integrals (point charge)
                  One-Electron Hamiltonian integrals
                  Velocity integrals
                  Relativistic Douglas-Kroll-Hess integrals:
                    - Parametrization         : EXP
                    - DKH order of Hamiltonian: 2
                    - DKH order of Properties : 0
                         - multipole moment operators
                         - electric potential operators
                         - contact operators
                  Atomic mean-field integrals
                  Two-Electron Repulsion integrals
 
                   Integrals are discarded if absolute value <: 0.10E-13
                   Integral cutoff threshold is set to       <: 0.10E-15
 
            Nuclear Potential Energy             68.89017480 au
 
 
      Basis set specifications :
      Symmetry species         a  
      Basis functions           15
 
 
  Input file to MOLDEN was generated!
 
 ###############################################################################
 ###############################################################################
 ###                                                                         ###
 ###                                                                         ###
 ###    There were warnings during the execution                             ###
 ###    Please, check the output with care!                                  ###
 ###                                                                         ###
 ###                                                                         ###
 ###############################################################################
 ###############################################################################
--- Stop Module: seward at Tue Jul 30 20:43:08 2024 /rc=_RC_ALL_IS_WELL_ ---
*** files: O3_113.GssOrb O3_113.guessorb.h5 O3_113.guessorb.molden xmldump
    saved to directory /home/grierjones/DDCASPT2/ozone/basis_sets/MB/O3/O3_113

*** symbolic link created: INPORB -> O3_113.GssOrb
--- Start Module: motra at Tue Jul 30 20:43:08 2024 ---
 
()()()()()()()()()()()()()()()()()()()()()()()()()()()()()()()()()()()()()()()()()()()()()()()()()()

                                               &MOTRA

                                   only a single process is used
                       available to each process: 2.0 GB of memory, 1 thread?
()()()()()()()()()()()()()()()()()()()()()()()()()()()()()()()()()()()()()()()()()()()()()()()()()()
 
 
      *** WARNING: Default frozen orbitals is overwritten by user input.
      *** Default values:   3
 
      Header of the integral files:
      
       Integrals generated by seward 4.2.0  , Tue Jul 30 20:43:08 2024
 
 
      Header of MO coefficients source file:
      *Guess orbitals                                                                 
 
 
      Cartesian coordinates in Angstrom:
      -----------------------------------------------------
      No.  Label        X            Y            Z        
      -----------------------------------------------------
       1   O1         0.70537500   1.06570600   0.00000000
       2   O2         0.00000000   0.00000000   0.00000000
       3   O3         0.70537500  -1.06570600   0.00000000
      -----------------------------------------------------
      Nuclear repulsion energy =   68.89017480
 
      Orbital specifications:
      -----------------------
 
      Symmetry species:              1
      Number of basis functions:    15
      Frozen orbitals:               0
      Deleted orbitals:              0
      Number of orbitals used:      15

       SYMMETRY  BASIS FUNCTIONS       ORBITALS      INTEGRALS   CPU(SEC)  I/O(SEC)
 
        1 1 1 1   15  15  15  15    15  15  15  15        7260       0.00      0.00

       TOTAL CPU TIME(SEC)    0.03TOTAL I/O TIME(SEC)    0.08
 
--- Stop Module: motra at Tue Jul 30 20:43:08 2024 /rc=_RC_ALL_IS_WELL_ ---
*** files: xmldump
    saved to directory /home/grierjones/DDCASPT2/ozone/basis_sets/MB/O3/O3_113

>>> COPY /tmp/MOLCASTMP/O3_113/GMJ_one_int_indx.csv /home/grierjones/DDCASPT2/ozone/basis_sets/MB/O3/O3_113/O3_113.GMJ_one_int_indx.csv

>>> COPY /tmp/MOLCASTMP/O3_113/GMJ_one_int.csv /home/grierjones/DDCASPT2/ozone/basis_sets/MB/O3/O3_113/O3_113.GMJ_one_int.csv

>>> COPY /tmp/MOLCASTMP/O3_113/GMJ_two_int_indx.csv /home/grierjones/DDCASPT2/ozone/basis_sets/MB/O3/O3_113/O3_113.GMJ_two_int_indx.csv

>>> COPY /tmp/MOLCASTMP/O3_113/GMJ_two_int.csv /home/grierjones/DDCASPT2/ozone/basis_sets/MB/O3/O3_113/O3_113.GMJ_two_int.csv

*** symbolic link created: INPORB -> O3_113.GssOrb
--- Start Module: scf at Tue Jul 30 20:43:08 2024 ---
 
()()()()()()()()()()()()()()()()()()()()()()()()()()()()()()()()()()()()()()()()()()()()()()()()()()

                                                &SCF

                                   only a single process is used
                       available to each process: 2.0 GB of memory, 1 thread?
()()()()()()()()()()()()()()()()()()()()()()()()()()()()()()()()()()()()()()()()()()()()()()()()()()
 
++    Input section:
      --------------
 
      Header of the integral files:
      
       Integrals generated by seward 4.2.0  , Tue Jul 30 20:43:08 2024
 
 
      Cartesian coordinates in Angstrom:
      -----------------------------------------------------
      No.  Label        X            Y            Z        
      -----------------------------------------------------
       1   O1         0.70537500   1.06570600   0.00000000
       2   O2         0.00000000   0.00000000   0.00000000
       3   O3         0.70537500  -1.06570600   0.00000000
      -----------------------------------------------------
      Nuclear repulsion energy =   68.89017480
--
 
++    Orbital specifications:
      -----------------------
 
      Symmetry species               1
                                     a
      Frozen orbitals                0
      Occupied orbitals             12
      Secondary orbitals             3
      Deleted orbitals               0
      Total number of orbitals      15
      Number of basis functions     15
--
 
      Molecular charge                           0.000
 
++    Optimization specifications:
      ----------------------------
 
      SCF Algorithm: Conventional
      Minimized density differences are used
      Number of density matrices in core                5
      Maximum number of NDDO SCF iterations           400
      Maximum number of HF SCF iterations             400
      Threshold for SCF energy change            0.10E-08
      Threshold for density matrix               0.10E-03
      Threshold for Fock matrix                  0.15E-03
      Threshold for linear dependence            0.10E-08
      Threshold at which DIIS is turned on       0.15E+00
      Threshold at which QNR/C2DIIS is turned on 0.75E-01
      Threshold for Norm(delta) (QNR/C2DIIS)     0.20E-04
      DIIS extrapolation of the SCF procedure
      All orbitals punched on: SCFORB
--
 
      Input vectors read from INPORB
      Orbital file label: *Guess orbitals
 
 
++ Convergence information
                                   SCF        iterations: Energy and convergence statistics
 
Iter     Tot. SCF        One-elec.       Two-elec.     Energy      Max Dij or  Max Fij      DNorm      TNorm      AccCon     Time
         Energy          Energy          Energy        Change      Delta Norm                                                in Sec.
   1  -223.873201491  -441.480522117   148.717145826   0.00E+00    0.64E+00*   0.27E+00*    0.74E+01   0.50E+02   None         0.
   2  -224.142760956  -444.431407360   151.398471605  -0.27E+00*   0.44E+00*   0.15E+00*    0.25E+01   0.50E+02   EDIIS        0.
   3  -224.204049409  -443.079701516   149.985477308  -0.61E-01*   0.13E+00*   0.82E-01*    0.54E+00   0.50E+02   EDIIS        0.
   4  -224.240870728  -443.848698508   150.717652981  -0.37E-01*   0.13E-01*   0.22E-01*    0.94E-01   0.50E+02   c2DIIS       0.
   5  -224.245494849  -443.661385557   150.525715908  -0.46E-02*   0.42E-02*   0.26E-02*    0.15E-01   0.50E+02   QNRc2DIIS    0.
   6  -224.245543699  -443.665265272   150.529546774  -0.49E-04*   0.61E-02*   0.13E-02*    0.60E-02   0.50E+02   QNRc2DIIS    0.
   7  -224.245568620  -443.663762511   150.528019092  -0.25E-04*   0.76E-03*   0.76E-03*    0.40E-02   0.50E+02   QNRc2DIIS    0.
   8  -224.245570121  -443.666155251   150.530410331  -0.15E-05*   0.64E-03*   0.23E-03*    0.25E-03   0.50E+02   QNRc2DIIS    0.
   9  -224.245570575  -443.665245328   150.529499954  -0.45E-06*   0.45E-04*   0.25E-04     0.51E-04   0.50E+02   QNRc2DIIS    0.
  10  -224.245570578  -443.665307429   150.529562052  -0.31E-08*   0.31E-05    0.26E-05     0.65E-03   0.50E+02   QNRc2DIIS    0.
  11  -224.245570578  -443.665304008   150.529558631  -0.27E-10    0.19E-05    0.70E-06     0.71E-04   0.50E+02   QNRc2DIIS    0.
 
       Convergence after 11 Macro Iterations
--
 
 *****************************************************************************************************************************
 *                                                                                                                           *
 *                                             SCF/KS-DFT Program, Final results                                             *
 *                                                                                                                           *
 *                                                                                                                           *
 *                                                                                                                           *
 *                                                       Final Results                                                       *
 *                                                                                                                           *
 *****************************************************************************************************************************
 
::    Total SCF energy                               -224.2455705777
      One-electron energy                            -443.6653040079
      Two-electron energy                             150.5295586308
      Nuclear repulsion energy                         68.8901747995
      Kinetic energy (interpolated)                   224.8450909225
      Virial theorem                                    0.9973336294
      Total spin, S(S+1)                                0.0000000000
      Total spin, S                                     0.0000000000
      Max non-diagonal density matrix element           0.0000024938
      Max non-diagonal Fock matrix element              0.0000004067
 
 
      All orbitals with orbital energies smaller than  E(LUMO)+0.5 are printed
 
++    Molecular orbitals:
      -------------------
 
      Title: SCF orbitals

      Molecular orbitals for symmetry species 1: a  
 
          Orbital            1         2         3         4         5         6         7         8         9        10    
          Energy          -21.0661  -20.7851  -20.7850   -1.8161   -1.4715   -1.1398   -0.8627   -0.8329   -0.8163   -0.6062
          Occ. No.          2.0000    2.0000    2.0000    2.0000    2.0000    2.0000    2.0000    2.0000    2.0000    2.0000
 
        1 O1     1s         0.0009   -0.7071    0.7071   -0.0201    0.0118    0.0080   -0.0189    0.0000   -0.0237    0.0023
        2 O1     2s        -0.0005   -0.0003    0.0001    0.2818   -0.5759    0.5799   -0.3251    0.0000   -0.4284    0.0391
        3 O1     2px       -0.0001    0.0007   -0.0007   -0.0619    0.0586    0.0910    0.1200    0.0000   -0.3453   -0.4963
        4 O1     2py        0.0002    0.0012   -0.0010   -0.0915    0.0938    0.0612   -0.3416    0.0000   -0.2327    0.5518
        5 O1     2pz       -0.0000    0.0000    0.0000   -0.0000   -0.0000   -0.0000   -0.0000    0.3377    0.0000    0.0000
        6 O2     1s         1.0000   -0.0000   -0.0017   -0.0230   -0.0000   -0.0162   -0.0077   -0.0000   -0.0000   -0.0000
        7 O2     2s         0.0000   -0.0000   -0.0011    0.6498   -0.0000   -0.6729   -0.0869   -0.0000    0.0000   -0.0000
        8 O2     2px        0.0016   -0.0000   -0.0002    0.1648    0.0000    0.2385    0.6906    0.0000    0.0000    0.0000
        9 O2     2py        0.0000    0.0006   -0.0000   -0.0000   -0.3371    0.0000   -0.0000   -0.0000    0.6015   -0.1594
       10 O2     2pz        0.0000   -0.0000   -0.0000   -0.0000    0.0000    0.0000   -0.0000    0.7413    0.0000   -0.0000
       11 O3     1s         0.0009    0.7071    0.7071   -0.0201   -0.0118    0.0080   -0.0189   -0.0000    0.0237   -0.0023
       12 O3     2s        -0.0005    0.0003    0.0001    0.2818    0.5759    0.5799   -0.3251   -0.0000    0.4284   -0.0391
       13 O3     2px       -0.0001   -0.0007   -0.0007   -0.0619   -0.0586    0.0910    0.1200   -0.0000    0.3453    0.4963
       14 O3     2py       -0.0002    0.0012    0.0010    0.0915    0.0938   -0.0612    0.3416    0.0000   -0.2327    0.5518
       15 O3     2pz        0.0000    0.0000    0.0000   -0.0000   -0.0000   -0.0000   -0.0000    0.3377    0.0000   -0.0000
 
          Orbital           11        12        13        14        15    
          Energy           -0.6003   -0.5211   -0.1084    0.2640    0.3535
          Occ. No.          2.0000    2.0000    0.0000    0.0000    0.0000
 
        1 O1     1s         0.0078   -0.0000    0.0000   -0.0282   -0.0436
        2 O1     2s         0.0692   -0.0000    0.0000   -0.3211   -0.4212
        3 O1     2px        0.6360   -0.0000    0.0000    0.3161    0.4771
        4 O1     2py       -0.1833    0.0000   -0.0000    0.6626    0.5019
        5 O1     2pz        0.0000   -0.7254    0.6374    0.0000    0.0000
        6 O2     1s         0.0167    0.0000   -0.0000    0.0835    0.0000
        7 O2     2s         0.2041    0.0000   -0.0000    0.8233    0.0000
        8 O2     2px       -0.5103   -0.0000    0.0000    0.6416    0.0000
        9 O2     2py        0.0000    0.0000   -0.0000   -0.0000    0.9864
       10 O2     2pz        0.0000    0.0000   -0.7369   -0.0000   -0.0000
       11 O3     1s         0.0078    0.0000   -0.0000   -0.0282    0.0436
       12 O3     2s         0.0692    0.0000   -0.0000   -0.3211    0.4212
       13 O3     2px        0.6360    0.0000    0.0000    0.3161   -0.4771
       14 O3     2py        0.1833    0.0000    0.0000   -0.6626    0.5019
       15 O3     2pz       -0.0000    0.7254    0.6374   -0.0000    0.0000
--
 
 
++    Molecular charges:
      ------------------
 
      Mulliken charges per centre and basis function type
      ---------------------------------------------------
 
                O1      O2      O3    
      1s       2.0001  2.0001  2.0001
      2s       1.9171  1.7816  1.9171
      2px      1.6265  1.6335  1.6265
      2pz      1.3450  1.3100  1.3450
      2py      1.1753  1.1468  1.1753
      Total    8.0640  7.8720  8.0640
 
      N-E     -0.0640  0.1280 -0.0640
 
      Total electronic charge=   24.000000
 
      Total            charge=   -0.000000
--
 
 
  Input file to MOLDEN was generated!
 
 
++    Static properties:
      ------------------
 
 
      LoProp Charges per center
 

                   O1       O2       O3    
      Nuclear      8.0000   8.0000   8.0000
      Electronic  -8.1126  -7.7747  -8.1126
 
      Total       -0.1126   0.2253  -0.1126
--
 
 
++    Natural Bond Order analysis
      ---------------------------
      Based on LoProp computed density
      -------------------------------------------------------------------------------------
      Atom A       Atom B       Bond Order | Atom A       Atom B       Bond Order
        O1           O2             2.000  |   O2           O3             2.000
      -------------------------------------------------------------------------------------
      NBO located     12.000 core electrons.
      NBO located      3.958 lone pair electrons.
      NBO located      8.000 electrons involved in    2 bonds.
      The remaining    0.042 electrons are to be considered as diffuse
--
 
 
++    Molecular properties:
      ---------------------
 
      Charge (e):
                      =   -0.0000
      Dipole Moment (Debye):
      Origin of the operator (Ang)=    0.0000    0.0000    0.0000
                   X= -3.3285E-01               Y= -2.8682E-11               Z=  1.1045E-13           Total=  3.3285E-01
      Quadrupole Moment (Debye*Ang):
      Origin of the operator (Ang)=    0.4703    0.0000    0.0000
                  XX= -1.7251E+01              XY= -2.8626E-11              XZ=  8.8398E-14              YY= -1.8495E+01
                  YZ=  1.6438E-13              ZZ= -1.5731E+01
      In traceless form (Debye*Ang)
                  XX= -1.3798E-01              XY= -4.2939E-11              XZ=  1.3260E-13              YY= -2.0037E+00
                  YZ=  2.4656E-13              ZZ=  2.1416E+00
--
 
 
  Input file to MOLDEN was generated!
 
 ###############################################################################
 ###############################################################################
 ###                                                                         ###
 ###                                                                         ###
 ###    RunFile label nBas                                                   ###
 ###    was used       78 times                                              ###
 ###                                                                         ###
 ###                                                                         ###
 ###############################################################################
 ###############################################################################
--- Stop Module: scf at Tue Jul 30 20:43:09 2024 /rc=_RC_ALL_IS_WELL_ ---
*** files: O3_113.LprOrb O3_113.LoProp.molden O3_113.scf.molden O3_113.ScfOrb O3_113.scf.h5 xmldump
    saved to directory /home/grierjones/DDCASPT2/ozone/basis_sets/MB/O3/O3_113

>>> COPY /tmp/MOLCASTMP/O3_113/O3_113.scf.h5 /home/grierjones/DDCASPT2/ozone/basis_sets/MB/O3/O3_113/

*** symbolic link created: INPORB -> O3_113.ScfOrb
--- Start Module: rasscf at Tue Jul 30 20:43:09 2024 ---
 
()()()()()()()()()()()()()()()()()()()()()()()()()()()()()()()()()()()()()()()()()()()()()()()()()()

                                              &RASSCF

                                   only a single process is used
                       available to each process: 2.0 GB of memory, 1 thread?
()()()()()()()()()()()()()()()()()()()()()()()()()()()()()()()()()()()()()()()()()()()()()()()()()()
 
 
      Header of the ONEINT file:
      --------------------------
      
      Integrals generated by seward 4.2.0  , Tue Jul 30 20:43:08 2024
 
 
      OrdInt status: non-squared
 
 
      Cartesian coordinates in Angstrom:
      -----------------------------------------------------
      No.  Label        X            Y            Z        
      -----------------------------------------------------
       1   O1         0.70537500   1.06570600   0.00000000
       2   O2         0.00000000   0.00000000   0.00000000
       3   O3         0.70537500  -1.06570600   0.00000000
      -----------------------------------------------------
      Nuclear repulsion energy =   68.89017480
 
++    Wave function specifications:
      -----------------------------
 
      Number of closed shell electrons          20
      Number of electrons in active shells       4
      Max number of holes in RAS1 space          0
      Max nr of electrons in RAS3 space          0
      Number of inactive orbitals               10
      Number of active orbitals                  3
      Number of secondary orbitals               2
      Spin quantum number                      0.0
      State symmetry                             1
--
 
++    Orbital specifications:
      -----------------------
 
      Symmetry species                           1
                                                 a
      Frozen orbitals                            0
      Inactive orbitals                         10
      Active orbitals                            3
      RAS1 orbitals                              0
      RAS2 orbitals                              3
      RAS3 orbitals                              0
      Secondary orbitals                         2
      Deleted orbitals                           0
      Number of basis functions                 15
--
 
++    CI expansion specifications:
      ----------------------------
 
      Number of CSFs                             6
      Number of determinants                     6
      Number of root(s) required                 1
      Root chosen for geometry opt.              1
      CI root used                               1
         
      highest root included in the CI            1
      max. size of the explicit Hamiltonian      6
--
 
++    Optimization specifications:
      ----------------------------
 
      RASSCF algorithm: Conventional
      Maximum number of macro iterations       200
      Maximum number of SX iterations          100
      Threshold for RASSCF energy            0.100E-07
      Threshold for max MO rotation          0.100E+00
      Threshold for max BLB element          0.100E-03
      Level shift parameter                  0.500E+00
      Make Quasi-Newton update
--
 
      The MO-coefficients are taken from the file:
      /home/grierjones/DDCASPT2/ozone/basis_sets/MB/O3/O3_112/O3_112.RasOrb                                                           
      Title: RASSCF average (pseudo-natural) orbitals                                      
 
      Total molecular charge    0.00
 
      ************************************************************************************************************************
      *                                                                                                                      *
      *                                            Wave function control section                                             *
      *                                                                                                                      *
      ************************************************************************************************************************
 
 
                                         RASSCF iterations: Energy and convergence statistics
                                         ----------------------------------------------------
 
      Iter CI   SX   CI       RASSCF       Energy    max ROT     max BLB   max BLB  Level Ln srch  Step   QN   Walltime
          iter iter root      energy       change     param      element    value   shift minimum  type update hh:mm:ss
 Nr of preliminary CI iterations:   1
        1   1    3    1  -224.36692635    0.00E+00   0.26E-02    7  14 1 -0.68E-02*  0.23   0.00    SX    NO    0:00:00
        2   1    3    1  -224.36698762   -0.61E-04* -0.13E-02    7  14 1 -0.33E-02*  0.23   0.00    SX    NO    0:00:00
        3   1    3    1  -224.36700798   -0.20E-04*  0.84E-03    7  14 1 -0.21E-02*  0.23   0.00    SX    NO    0:00:00
        4   1    3    1  -224.36701554   -0.76E-05*  0.50E-03    9  15 1  0.12E-02*  0.23   0.00    SX    NO    0:00:00
        5   1    3    1  -224.36701830   -0.28E-05*  0.75E-03    9  15 1  0.78E-03*  0.23   2.50    LS   YES    0:00:00
        6   1    3    1  -224.36701996   -0.17E-05* -0.84E-04    4  14 1 -0.14E-03*  0.23   1.06    QN   YES    0:00:00
        7   1    3    1  -224.36701999   -0.27E-07* -0.45E-04   10  14 1 -0.51E-04   0.23   1.32    QN   YES    0:00:00
        8   1    2    1  -224.36701999   -0.53E-08   0.10E-04    8  15 1 -0.19E-04   0.23   1.22    QN   YES    0:00:00
      Convergence after  8 iterations
        9   1    2    1  -224.36701999   -0.42E-09   0.10E-04    4  14 1  0.10E-04   0.23   1.22    QN   YES    0:00:00
 
      ************************************************************************************************************************
                                                      Wave function printout:
                       occupation of active orbitals, and spin coupling of open shells (u,d: Spin up or down)
      ************************************************************************************************************************
 
      Note: transformation to natural orbitals
      has been made, which may change the order of the CSFs.
 
      printout of CI-coefficients larger than  0.00 for root  1
      energy=    -224.367020
      conf/sym  111     Coeff  Weight
             1  220  -0.86013 0.73982
 
   + sqrt(     1/1     )  |220|
 
             2  2ud   0.00000 0.00000
 
   + sqrt(     1/2     )  |2ab|
   - sqrt(     1/2     )  |2ba|
 
             3  202   0.50686 0.25691
 
   + sqrt(     1/1     )  |202|
 
             4  u2d  -0.00000 0.00000
 
   - sqrt(     1/2     )  |a2b|
   + sqrt(     1/2     )  |b2a|
 
             5  ud2  -0.00000 0.00000
 
   + sqrt(     1/2     )  |ab2|
   - sqrt(     1/2     )  |ba2|
 
             6  022   0.05716 0.00327
 
   + sqrt(     1/1     )  |022|
 
 
      Natural orbitals and occupation numbers for root  1
      sym 1:   1.993465   1.486180   0.520354
 
      ************************************************************************************************************************
      *                                                                                                                      *
      *                                                    Final results                                                     *
      *                                                                                                                      *
      ************************************************************************************************************************
 
 
++    Wave function specifications:
      -----------------------------
 
      Number of closed shell electrons          20
      Number of electrons in active shells       4
      Max number of holes in RAS1 space          0
      Max nr of electrons in RAS3 space          0
      Number of inactive orbitals               10
      Number of active orbitals                  3
      Number of secondary orbitals               2
      Spin quantum number                      0.0
      State symmetry                             1
--
 
++    Orbital specifications:
      -----------------------
 
      Symmetry species                           1
                                                 a
      Frozen orbitals                            0
      Inactive orbitals                         10
      Active orbitals                            3
      RAS1 orbitals                              0
      RAS2 orbitals                              3
      RAS3 orbitals                              0
      Secondary orbitals                         2
      Deleted orbitals                           0
      Number of basis functions                 15
--
 
++    CI expansion specifications:
      ----------------------------
 
      Number of CSFs                             6
      Number of determinants                     6
      Number of root(s) required                 1
      CI root used                               1
      highest root included in the CI            1
      Root passed to geometry opt.               1
--
 
++    Final optimization conditions:
      ------------------------------
 
      Average CI energy                            -224.36701999
      RASSCF energy for state  1                   -224.36701999
      Super-CI energy                                -0.00000000
      RASSCF energy change                           -0.00000000
      Max change in MO coefficients               0.108E-04
      Max non-diagonal density matrix element     0.104E-04
      Maximum BLB matrix element                  0.103E-04
      (orbital pair   4,  14 in symmetry   1)
      Norm of electronic gradient            0.119E-04
--
 
 
      Final state energy(ies):
      ------------------------
 
::    RASSCF root number  1 Total energy:   -224.36701999
 
++    Molecular orbitals:
      -------------------
 
      Pseudonatural active orbitals and approximate occupation numbers
 
 
 
 
      Molecular orbitals for symmetry species 1: a  
 
 
      Orbital                1         2         3         4         5         6         7         8         9        10
      Energy          -20.9324  -20.8163  -20.8162   -1.7837   -1.4653   -1.1249   -0.8335   -0.8057   -0.6219   -0.5940
      Occ. No.          2.0000    2.0000    2.0000    2.0000    2.0000    2.0000    2.0000    2.0000    2.0000    2.0000
 
    1 O1     1s         0.0021   -0.7071    0.7071   -0.0191    0.0099    0.0104   -0.0157   -0.0210    0.0020    0.0080
    2 O1     2s        -0.0006   -0.0003    0.0000    0.3122   -0.6008    0.5922   -0.2508   -0.3757    0.0382    0.0629
    3 O1     2px       -0.0001    0.0007   -0.0007   -0.0647    0.0571    0.1107    0.1922   -0.3924   -0.4769    0.6275
    4 O1     2py        0.0003    0.0011   -0.0010   -0.1003    0.0936    0.0953   -0.3852   -0.2557    0.5685   -0.1082
    5 O1     2pz        0.0000   -0.0000   -0.0000    0.0000   -0.0000   -0.0000    0.0000   -0.0000   -0.0000    0.0000
    6 O2     1s         1.0000   -0.0000   -0.0033   -0.0255   -0.0000   -0.0127   -0.0107   -0.0000    0.0000    0.0227
    7 O2     2s         0.0005   -0.0000   -0.0011    0.6058   -0.0000   -0.6710   -0.1540   -0.0000    0.0000    0.2921
    8 O2     2px        0.0019   -0.0000   -0.0002    0.1618   -0.0000    0.1583    0.6078    0.0000   -0.0000   -0.5648
    9 O2     2py        0.0000    0.0005   -0.0000   -0.0000   -0.2922    0.0000   -0.0000    0.5392   -0.1540    0.0000
   10 O2     2pz        0.0000   -0.0000   -0.0000    0.0000   -0.0000    0.0000    0.0000    0.0000   -0.0000   -0.0000
   11 O3     1s         0.0021    0.7071    0.7071   -0.0191   -0.0099    0.0104   -0.0157    0.0210   -0.0020    0.0080
   12 O3     2s        -0.0006    0.0003    0.0000    0.3122    0.6008    0.5922   -0.2508    0.3757   -0.0382    0.0629
   13 O3     2px       -0.0001   -0.0007   -0.0007   -0.0647   -0.0571    0.1107    0.1922    0.3924    0.4769    0.6275
   14 O3     2py       -0.0003    0.0011    0.0010    0.1003    0.0936   -0.0953    0.3852   -0.2557    0.5685    0.1082
   15 O3     2pz       -0.0000   -0.0000    0.0000   -0.0000   -0.0000    0.0000   -0.0000   -0.0000   -0.0000   -0.0000
 
 
      Orbital               11        12        13        14        15
      Energy            0.0000    0.0000    0.0000    0.2712    0.3860
      Occ. No.          1.9935    1.4862    0.5204    0.0000    0.0000
 
    1 O1     1s        -0.0000    0.0000    0.0000   -0.0300   -0.0454
    2 O1     2s        -0.0000   -0.0000    0.0000   -0.3381   -0.4365
    3 O1     2px       -0.0000    0.0000   -0.0000    0.2893    0.4604
    4 O1     2py        0.0000   -0.0000    0.0000    0.6498    0.4712
    5 O1     2pz        0.2143   -0.7254    0.6888    0.0000    0.0000
    6 O2     1s         0.0000    0.0000   -0.0000    0.0814    0.0000
    7 O2     2s         0.0000    0.0000   -0.0000    0.8221    0.0000
    8 O2     2px       -0.0000   -0.0000    0.0000    0.7024    0.0000
    9 O2     2py       -0.0000   -0.0000   -0.0000   -0.0000    1.0363
   10 O2     2pz        0.8645    0.0000   -0.5874    0.0000   -0.0000
   11 O3     1s         0.0000    0.0000   -0.0000   -0.0300    0.0454
   12 O3     2s         0.0000   -0.0000   -0.0000   -0.3381    0.4365
   13 O3     2px        0.0000    0.0000    0.0000    0.2893   -0.4604
   14 O3     2py        0.0000    0.0000    0.0000   -0.6498    0.4712
   15 O3     2pz        0.2143    0.7254    0.6888   -0.0000    0.0000
--
 
      Von Neumann Entropy (Root  1) =  0.82842
 

      Mulliken population analysis for root number:  1
      -----------------------------------------------
 
 
++    Molecular charges:
      ------------------
 
      Mulliken charges per centre and basis function type
      ---------------------------------------------------
 
                O1      O2      O3    
      1s       2.0001  2.0002  2.0001
      2s       1.9074  1.7695  1.9074
      2px      1.6841  1.5208  1.6841
      2pz      1.1318  1.7363  1.1318
      2py      1.2673  0.9916  1.2673
      Total    7.9908  8.0184  7.9908
 
      N-E      0.0092 -0.0184  0.0092
 
      Total electronic charge=   24.000000
 
      Total            charge=   -0.000000
--
 
 

      Expectation values of various properties for root number:  1
      -----------------------------------------------------------
 
 
++    Molecular properties:
      ---------------------
 
      Charge (e):
                      =   -0.0000
      Dipole Moment (Debye):
      Origin of the operator (Ang)=    0.0000    0.0000    0.0000
                   X=  2.0337E-01               Y= -2.2568E-11               Z=  1.0034E-12           Total=  2.0337E-01
      Quadrupole Moment (Debye*Ang):
      Origin of the operator (Ang)=    0.4703    0.0000    0.0000
                  XX= -1.7488E+01              XY= -2.5163E-11              XZ= -1.7287E-11              YY= -1.7883E+01
                  YZ=  5.3935E-07              ZZ= -1.5463E+01
      In traceless form (Debye*Ang)
                  XX= -8.1528E-01              XY= -3.7745E-11              XZ= -2.5931E-11              YY= -1.4078E+00
                  YZ=  8.0902E-07              ZZ=  2.2231E+00
--
 

      LoProp population analysis for root number:  1
      -----------------------------------------------
 
 
++    LoProp analysis:
      ----------------
 
 
 
  Input file to MOLDEN was generated!
 
 
++    Static properties:
      ------------------
 
 
      LoProp Charges per center
 

                   O1       O2       O3    
      Nuclear      8.0000   8.0000   8.0000
      Electronic  -8.0223  -7.9553  -8.0223
 
      Total       -0.0223   0.0447  -0.0223
--
 
 
      Natural Bond Order analysis for root number:  1
 
++    Natural Bond Order analysis
      ---------------------------
      Based on LoProp computed density
      -------------------------------------------------------------------------------------
      Atom A       Atom B       Bond Order | Atom A       Atom B       Bond Order
        O1           O2             1.966  |   O2           O3             1.966
      -------------------------------------------------------------------------------------
      NBO located     12.000 core electrons.
      NBO located      3.954 lone pair electrons.
      NBO located      7.864 electrons involved in    2 bonds.
      The remaining    0.182 electrons are to be considered as diffuse
--
 
--
 
 
  Input file to MOLDEN was generated!
 
      Average orbitals are written to the RASORB file
      Natural orbitals for root   1 are written to the RASORB.1 file
      Spin density orbitals for root   1 are written to the SPDORB.1 file
 
--- Stop Module: rasscf at Tue Jul 30 20:43:09 2024 /rc=_RC_ALL_IS_WELL_ ---
*** files: O3_113.LprOrb O3_113.rasscf.molden O3_113.LoProp.molden O3_113.RasOrb O3_113.RasOrb.1 O3_113.rasscf.h5 O3_113.SpdOrb.1 xmldump
    saved to directory /home/grierjones/DDCASPT2/ozone/basis_sets/MB/O3/O3_113

>>> COPY /tmp/MOLCASTMP/O3_113/O3_113.rasscf.h5 /home/grierjones/DDCASPT2/ozone/basis_sets/MB/O3/O3_113/

>>> COPY /tmp/MOLCASTMP/O3_113/GMJ_Fock_MO.csv /home/grierjones/DDCASPT2/ozone/basis_sets/MB/O3/O3_113/O3_113.GMJ_Fock_MO.csv

*** symbolic link created: INPORB -> O3_113.RasOrb
--- Start Module: caspt2 at Tue Jul 30 20:43:09 2024 ---
 
()()()()()()()()()()()()()()()()()()()()()()()()()()()()()()()()()()()()()()()()()()()()()()()()()()

                                              &CASPT2

                                   only a single process is used
                       available to each process: 2.0 GB of memory, 1 thread?
()()()()()()()()()()()()()()()()()()()()()()()()()()()()()()()()()()()()()()()()()()()()()()()()()()
 
 Cholesky algorithm in CASPT2 =    1
 
 ###############################################################################
 ###############################################################################
 ###                                                                         ###
 ###                                                                         ###
 ###    User changed nr of frozen orbitals.                                  ###
 ###                                                                         ###
 ###                                                                         ###
 ###############################################################################
 ###############################################################################
 
++    Wave function specifications:
      -----------------------------
 
      Number of closed shell electrons          20
      Number of electrons in active shells       4
      Max number of holes in RAS1 space          0
      Max number of electrons in RAS3 space      0
      Number of inactive orbitals               10
      Number of active orbitals                  3
      Number of secondary orbitals               2
      Spin quantum number                      0.0
      State symmetry                             1
      Number of CSFs                             6
      Number of root(s) available                1
      Root passed to geometry opt.               1
      A file JOBMIX will be created.
      This is a CASSCF or RASSCF reference function
--
 
++    Orbital specifications:
      -----------------------
 
      Symmetry species                           1
                                                 a
      Frozen orbitals                            0
      Inactive orbitals                         10
      Active orbitals                            3
      Secondary orbitals                         2
      Deleted orbitals                           0
      Number of basis functions                 15
--
 
      Type of Fock operator: STANDARD
      Type of 0-order Hamiltonian: STANDARD WITH DEFAULT IPEA
        "IP-EA" denominator shift =      0.25
      The input orbitals and the CI vector will be transformed.
 
--------------------------------------------------------------------------------
 Estimated memory requirements:
  POLY3 :                   250202
  RHS:                      251368
  SIGMA :                   251440
  PRPCTL:                        0
 Available workspace:    230399382
 
++ CASPT2 computation for group   1
 
********************************************************************************
 Multi-State initialization phase begins for group   1
--------------------------------------------------------------------------------
********************************************************************************
 Compute H0 matrices for state    1
--------------------------------------------------------------------------------
--------------------------------------------------------------------------------
 H0 matrices have been computed.
 
********************************************************************************
  CASPT2 EQUATION SOLUTION
--------------------------------------------------------------------------------
 
  Total nr of CASPT2 parameters:
   Before reduction:        2100
   After  reduction:        1232
-------------------------------------------------------------------------------------------------------------------
 
  FINAL CASPT2 RESULT:
 
  Correlation energy /Case, /Symm, and sums:
 VJTU     -0.00000000 -0.00000000
 VJTIP    -0.00066926 -0.00066926
 VJTIM     0.00000000  0.00000000
 ATVX     -0.00000000 -0.00000000
 AIVX     -0.04364394 -0.04364394
 VJAIP    -0.00000000 -0.00000000
 VJAIM    -0.00000000 -0.00000000
 BVATP    -0.00057464 -0.00057464
 BVATM    -0.00000014 -0.00000014
 BJATP    -0.00000000 -0.00000000
 BJATM    -0.00000000 -0.00000000
 BJAIP    -0.04428200 -0.04428200
 BJAIM    -0.00633342 -0.00633342
 Summed:  -0.09550340 -0.09550340
 
      Reference energy:        -224.3670199946
      E2 (Non-variational):      -0.0955034041
      E2 (Variational):          -0.0955034268
      Total energy:            -224.4625234214
      Residual norm:              0.0000007434
      Reference weight:           0.95397
 
      Contributions to the CASPT2 correlation energy
      Active & Virtual Only:         -0.0005747857
      One Inactive Excited:          -0.0436439359
      Two Inactive Excited:          -0.0512846825
 
 
++ Denominators, etc.
----------------------------------------------------------------------------------------------------
 Report on small energy denominators, large coefficients, and large energy contributions.
CASE  SYMM ACTIVE-MIX  NON-ACTIVE INDICES          DENOMINATOR     RHS VALUE       COEFFICIENT     CONTRIBUTION
AIVX     1  Mu1.0003  In1.005 Se1.014               1.99319945     -0.05593520      0.02806302     -0.00156971
AIVX     1  Mu1.0001  In1.007 Se1.014               1.02722678      0.02775461     -0.02701897     -0.00074990
AIVX     1  Mu1.0004  In1.007 Se1.014               1.58243369     -0.04375331      0.02764938     -0.00120975
AIVX     1  Mu1.0005  In1.007 Se1.014               1.65489923     -0.06937690      0.04192213     -0.00290843
AIVX     1  Mu1.0002  In1.008 Se1.014               1.25806606      0.05926261     -0.04710612     -0.00279163
AIVX     1  Mu1.0002  In1.009 Se1.014               1.07423094     -0.04479869      0.04170303     -0.00186824
AIVX     1  Mu1.0003  In1.009 Se1.014               1.14977100     -0.03238358      0.02816525     -0.00091209
AIVX     1  Mu1.0005  In1.010 Se1.014               1.41539361      0.04294553     -0.03034176     -0.00130304
AIVX     1  Mu1.0001  In1.008 Se1.015               1.11427149      0.04052272     -0.03636701     -0.00147369
AIVX     1  Mu1.0004  In1.008 Se1.015               1.66947841     -0.06343621      0.03799762     -0.00241043
AIVX     1  Mu1.0005  In1.008 Se1.015               1.74194395     -0.09814402      0.05634166     -0.00552960
AIVX     1  Mu1.0006  In1.008 Se1.015               1.90294399      0.07040007     -0.03699535     -0.00260447
AIVX     1  Mu1.0002  In1.010 Se1.015               1.16117080     -0.05129336      0.04417382     -0.00226582
AIVX     1  Mu1.0003  In1.010 Se1.015               1.23671085     -0.03431231      0.02774481     -0.00095199
BJAIP    1  Se1.014 In1.007 Se1.014 In1.007         2.20942964      0.06494172     -0.02939298     -0.00190883
BJAIP    1  Se1.014 In1.007 Se1.015 In1.008         2.29647436      0.08238066     -0.03587267     -0.00295521
BJAIP    1  Se1.014 In1.008 Se1.014 In1.008         2.15386399      0.06084110     -0.02824742     -0.00171860
BJAIP    1  Se1.015 In1.008 Se1.015 In1.008         2.38351908      0.11649400     -0.04887479     -0.00569362
BJAIP    1  Se1.014 In1.009 Se1.014 In1.009         1.78619376      0.04572425     -0.02559871     -0.00117048
BJAIP    1  Se1.014 In1.008 Se1.015 In1.010         2.05696874     -0.08769514      0.04263319     -0.00373872
BJAIP    1  Se1.015 In1.010 Se1.015 In1.010         1.96007348      0.05581509     -0.02847602     -0.00158939
BJAIM    1  Se1.014 In1.007 Se1.014 In1.008         2.29647436      0.08423605     -0.03668060     -0.00308983
--
 
   (Skipping property calculation,
    use PROP keyword to activate)
--
 
  Total CASPT2 energies:
::    CASPT2 Root  1     Total energy:   -224.46252342
 
  A NEW JOBIPH FILE NAMED 'JOBMIX' IS PREPARED.
********************************************************************************
--- Stop Module: caspt2 at Tue Jul 30 20:43:09 2024 /rc=_RC_ALL_IS_WELL_ ---
*** files: xmldump
    saved to directory /home/grierjones/DDCASPT2/ozone/basis_sets/MB/O3/O3_113

>>> EXPORT i = B

>>> EXPORT j = P

>>> IF (-FILE GMJ_e2_${i}_${j}.csv)

>>> COPY /tmp/MOLCASTMP/O3_113/GMJ_RHS_B_P.csv /home/grierjones/DDCASPT2/ozone/basis_sets/MB/O3/O3_113/GMJ_RHS_B_P.csv

>>> COPY /tmp/MOLCASTMP/O3_113/GMJ_IVECW_B_P.csv /home/grierjones/DDCASPT2/ozone/basis_sets/MB/O3/O3_113/GMJ_IVECW_B_P.csv

>>> COPY /tmp/MOLCASTMP/O3_113/GMJ_e2_B_P.csv /home/grierjones/DDCASPT2/ozone/basis_sets/MB/O3/O3_113/GMJ_e2_B_P.csv

>>> END FOREACH

>>> EXPORT j = M

>>> IF (-FILE GMJ_e2_${i}_${j}.csv)
(Skipped)

>>> END FOREACH

>>> END FOREACH

>>> EXPORT i = E

>>> EXPORT j = P

>>> IF (-FILE GMJ_e2_${i}_${j}.csv)

>>> COPY /tmp/MOLCASTMP/O3_113/GMJ_RHS_E_P.csv /home/grierjones/DDCASPT2/ozone/basis_sets/MB/O3/O3_113/GMJ_RHS_E_P.csv

>>> COPY /tmp/MOLCASTMP/O3_113/GMJ_IVECW_E_P.csv /home/grierjones/DDCASPT2/ozone/basis_sets/MB/O3/O3_113/GMJ_IVECW_E_P.csv

>>> COPY /tmp/MOLCASTMP/O3_113/GMJ_e2_E_P.csv /home/grierjones/DDCASPT2/ozone/basis_sets/MB/O3/O3_113/GMJ_e2_E_P.csv

>>> END FOREACH

>>> EXPORT j = M

>>> IF (-FILE GMJ_e2_${i}_${j}.csv)

>>> COPY /tmp/MOLCASTMP/O3_113/GMJ_RHS_E_M.csv /home/grierjones/DDCASPT2/ozone/basis_sets/MB/O3/O3_113/GMJ_RHS_E_M.csv

>>> COPY /tmp/MOLCASTMP/O3_113/GMJ_IVECW_E_M.csv /home/grierjones/DDCASPT2/ozone/basis_sets/MB/O3/O3_113/GMJ_IVECW_E_M.csv

>>> COPY /tmp/MOLCASTMP/O3_113/GMJ_e2_E_M.csv /home/grierjones/DDCASPT2/ozone/basis_sets/MB/O3/O3_113/GMJ_e2_E_M.csv

>>> END FOREACH

>>> END FOREACH

>>> EXPORT i = F

>>> EXPORT j = P

>>> IF (-FILE GMJ_e2_${i}_${j}.csv)

>>> COPY /tmp/MOLCASTMP/O3_113/GMJ_RHS_F_P.csv /home/grierjones/DDCASPT2/ozone/basis_sets/MB/O3/O3_113/GMJ_RHS_F_P.csv

>>> COPY /tmp/MOLCASTMP/O3_113/GMJ_IVECW_F_P.csv /home/grierjones/DDCASPT2/ozone/basis_sets/MB/O3/O3_113/GMJ_IVECW_F_P.csv

>>> COPY /tmp/MOLCASTMP/O3_113/GMJ_e2_F_P.csv /home/grierjones/DDCASPT2/ozone/basis_sets/MB/O3/O3_113/GMJ_e2_F_P.csv

>>> END FOREACH

>>> EXPORT j = M

>>> IF (-FILE GMJ_e2_${i}_${j}.csv)

>>> COPY /tmp/MOLCASTMP/O3_113/GMJ_RHS_F_M.csv /home/grierjones/DDCASPT2/ozone/basis_sets/MB/O3/O3_113/GMJ_RHS_F_M.csv

>>> COPY /tmp/MOLCASTMP/O3_113/GMJ_IVECW_F_M.csv /home/grierjones/DDCASPT2/ozone/basis_sets/MB/O3/O3_113/GMJ_IVECW_F_M.csv

>>> COPY /tmp/MOLCASTMP/O3_113/GMJ_e2_F_M.csv /home/grierjones/DDCASPT2/ozone/basis_sets/MB/O3/O3_113/GMJ_e2_F_M.csv

>>> END FOREACH

>>> END FOREACH

>>> EXPORT i = G

>>> EXPORT j = P

>>> IF (-FILE GMJ_e2_${i}_${j}.csv)

>>> COPY /tmp/MOLCASTMP/O3_113/GMJ_RHS_G_P.csv /home/grierjones/DDCASPT2/ozone/basis_sets/MB/O3/O3_113/GMJ_RHS_G_P.csv

>>> COPY /tmp/MOLCASTMP/O3_113/GMJ_IVECW_G_P.csv /home/grierjones/DDCASPT2/ozone/basis_sets/MB/O3/O3_113/GMJ_IVECW_G_P.csv

>>> COPY /tmp/MOLCASTMP/O3_113/GMJ_e2_G_P.csv /home/grierjones/DDCASPT2/ozone/basis_sets/MB/O3/O3_113/GMJ_e2_G_P.csv

>>> END FOREACH

>>> EXPORT j = M

>>> IF (-FILE GMJ_e2_${i}_${j}.csv)

>>> COPY /tmp/MOLCASTMP/O3_113/GMJ_RHS_G_M.csv /home/grierjones/DDCASPT2/ozone/basis_sets/MB/O3/O3_113/GMJ_RHS_G_M.csv

>>> COPY /tmp/MOLCASTMP/O3_113/GMJ_IVECW_G_M.csv /home/grierjones/DDCASPT2/ozone/basis_sets/MB/O3/O3_113/GMJ_IVECW_G_M.csv

>>> COPY /tmp/MOLCASTMP/O3_113/GMJ_e2_G_M.csv /home/grierjones/DDCASPT2/ozone/basis_sets/MB/O3/O3_113/GMJ_e2_G_M.csv

>>> END FOREACH

>>> END FOREACH

>>> EXPORT i = H

>>> EXPORT j = P

>>> IF (-FILE GMJ_e2_${i}_${j}.csv)

>>> COPY /tmp/MOLCASTMP/O3_113/GMJ_RHS_H_P.csv /home/grierjones/DDCASPT2/ozone/basis_sets/MB/O3/O3_113/GMJ_RHS_H_P.csv

>>> COPY /tmp/MOLCASTMP/O3_113/GMJ_IVECW_H_P.csv /home/grierjones/DDCASPT2/ozone/basis_sets/MB/O3/O3_113/GMJ_IVECW_H_P.csv

>>> COPY /tmp/MOLCASTMP/O3_113/GMJ_e2_H_P.csv /home/grierjones/DDCASPT2/ozone/basis_sets/MB/O3/O3_113/GMJ_e2_H_P.csv

>>> END FOREACH

>>> EXPORT j = M

>>> IF (-FILE GMJ_e2_${i}_${j}.csv)

>>> COPY /tmp/MOLCASTMP/O3_113/GMJ_RHS_H_M.csv /home/grierjones/DDCASPT2/ozone/basis_sets/MB/O3/O3_113/GMJ_RHS_H_M.csv

>>> COPY /tmp/MOLCASTMP/O3_113/GMJ_IVECW_H_M.csv /home/grierjones/DDCASPT2/ozone/basis_sets/MB/O3/O3_113/GMJ_IVECW_H_M.csv

>>> COPY /tmp/MOLCASTMP/O3_113/GMJ_e2_H_M.csv /home/grierjones/DDCASPT2/ozone/basis_sets/MB/O3/O3_113/GMJ_e2_H_M.csv

>>> END FOREACH

>>> END FOREACH

>>> EXPORT i = A

>>> IF (-FILE GMJ_e2_$i.csv)

>>> COPY /tmp/MOLCASTMP/O3_113/GMJ_RHS_A.csv /home/grierjones/DDCASPT2/ozone/basis_sets/MB/O3/O3_113/GMJ_RHS_A.csv

>>> COPY /tmp/MOLCASTMP/O3_113/GMJ_IVECW_A.csv /home/grierjones/DDCASPT2/ozone/basis_sets/MB/O3/O3_113/GMJ_IVECW_A.csv

>>> COPY /tmp/MOLCASTMP/O3_113/GMJ_e2_A.csv /home/grierjones/DDCASPT2/ozone/basis_sets/MB/O3/O3_113/GMJ_e2_A.csv

>>> END FOREACH

>>> EXPORT i = C

>>> IF (-FILE GMJ_e2_$i.csv)

>>> COPY /tmp/MOLCASTMP/O3_113/GMJ_RHS_C.csv /home/grierjones/DDCASPT2/ozone/basis_sets/MB/O3/O3_113/GMJ_RHS_C.csv

>>> COPY /tmp/MOLCASTMP/O3_113/GMJ_IVECW_C.csv /home/grierjones/DDCASPT2/ozone/basis_sets/MB/O3/O3_113/GMJ_IVECW_C.csv

>>> COPY /tmp/MOLCASTMP/O3_113/GMJ_e2_C.csv /home/grierjones/DDCASPT2/ozone/basis_sets/MB/O3/O3_113/GMJ_e2_C.csv

>>> END FOREACH

>>> EXPORT i = D

>>> IF (-FILE GMJ_e2_$i.csv)

>>> COPY /tmp/MOLCASTMP/O3_113/GMJ_RHS_D.csv /home/grierjones/DDCASPT2/ozone/basis_sets/MB/O3/O3_113/GMJ_RHS_D.csv

>>> COPY /tmp/MOLCASTMP/O3_113/GMJ_IVECW_D.csv /home/grierjones/DDCASPT2/ozone/basis_sets/MB/O3/O3_113/GMJ_IVECW_D.csv

>>> COPY /tmp/MOLCASTMP/O3_113/GMJ_e2_D.csv /home/grierjones/DDCASPT2/ozone/basis_sets/MB/O3/O3_113/GMJ_e2_D.csv

>>> END FOREACH

.########################.
.# Non-zero return code #.
.########################.

    Timing: Wall=1.09 User=0.78 System=0.31
************************************************
*** WorkDir at /tmp/MOLCASTMP/O3_113 cleaned ***
************************************************
