[Molden Format]
[N_Atoms]
                     2
[Atoms] (AU)
N1          1      7           0.00000000      0.00000000      0.00000000
O2          2      8           0.00000000      0.00000000      3.40150702
[Charge] (Mulliken)
  7.542508045188612E-002
 -7.542508045197316E-002
[GTO] (AU)
   1
   s  14
  7.476171500E+04  1.182599996E-04
  1.112365400E+04  5.172899983E-04
  2.512685700E+03  2.266659992E-03
  7.037772900E+02  9.145289970E-03
  2.254787900E+02  3.239342989E-02
  7.961581000E+01  9.770792967E-02
  3.023728300E+01  2.317036792E-01
  1.226362200E+01  3.768898887E-01
  5.265086000E+00  3.177420689E-01
  2.333471000E+00  8.211308973E-02
  9.018560000E-01  3.312089989E-03
  3.583360000E-01  3.720819988E-03
  1.410930000E-01  3.165419989E-03
  4.938300000E-02  4.595799985E-04
   s  14
  7.476171500E+04 -2.707000010E-05
  1.112365400E+04 -1.183700004E-04
  2.512685700E+03 -5.203800020E-04
  7.037772900E+02 -2.102930008E-03
  2.254787900E+02 -7.568200028E-03
  7.961581000E+01 -2.346767009E-02
  3.023728300E+01 -6.042901023E-02
  1.226362200E+01 -1.170549104E-01
  5.265086000E+00 -1.555321506E-01
  2.333471000E+00 -2.468935009E-02
  9.018560000E-01  3.625054514E-01
  3.583360000E-01  5.550845021E-01
  1.410930000E-01  2.148376908E-01
  4.938300000E-02  8.983850034E-03
   p   9
  1.266665700E+02  1.233630000E-03
  2.983738900E+01  9.493409996E-03
  9.394038000E+00  4.293961998E-02
  3.405104000E+00  1.362925399E-01
  1.350000000E+00  2.921362499E-01
  5.576960000E-01  3.887887598E-01
  2.324490000E-01  2.946801399E-01
  9.426400000E-02  8.012875997E-02
  3.299200000E-02  5.405199998E-04
 
   2
   s  14
  1.053749500E+05  1.238600013E-04
  1.567924000E+04  5.120100053E-04
  3.534544700E+03  2.152910022E-03
  9.873651600E+02  8.528440089E-03
  3.159787500E+02  3.018049031E-02
  1.116542800E+02  9.099702095E-02
  4.269945100E+01  2.177936423E-01
  1.739559600E+01  3.686245738E-01
  7.438309000E+00  3.366707335E-01
  3.222862000E+00  9.657630101E-02
  1.253877000E+00  2.144520022E-03
  4.951550000E-01  1.194350012E-03
  1.916650000E-01  5.390200056E-04
  6.708300000E-02  2.103400022E-04
   s  14
  1.053749500E+05 -2.815000008E-05
  1.567924000E+04 -1.163000003E-04
  3.534544700E+03 -4.909200013E-04
  9.873651600E+02 -1.946160005E-03
  3.159787500E+02 -7.005300019E-03
  1.116542800E+02 -2.167814006E-02
  4.269945100E+01 -5.641213015E-02
  1.739559600E+01 -1.127053003E-01
  7.438309000E+00 -1.589119704E-01
  3.222862000E+00 -3.355083009E-02
  1.253877000E+00  3.531902810E-01
  4.951550000E-01  5.534199315E-01
  1.916650000E-01  2.301839106E-01
  6.708300000E-02  1.127267003E-02
   p   9
  2.000000000E+02  9.173000030E-04
  4.653336700E+01  7.377140024E-03
  1.462180900E+01  3.483515011E-02
  5.313064000E+00  1.144397004E-01
  2.102525000E+00  2.554966408E-01
  8.502230000E-01  3.722557412E-01
  3.375970000E-01  3.323314911E-01
  1.288920000E-01  1.400847905E-01
  4.511200000E-02  2.395784008E-02
 
[MO]
Sym=     1a  
Ene=   -20.6520
Spin= Alpha
Occup=    1.00000
   1        -0.00000574
   2        -0.00008219
   3        -0.00000000
   4         0.00000000
   5         0.00000933
   6         0.99999862
   7        -0.00189377
   8         0.00000000
   9         0.00000000
  10        -0.00030444
Sym=     1a  
Ene=   -20.7150
Spin= Beta
Occup=    1.00000
   1        -0.00003630
   2        -0.00040708
   3        -0.00000000
   4         0.00000000
   5        -0.00034514
   6         1.00000779
   7         0.00167973
   8         0.00000000
   9         0.00000000
  10        -0.00048044
Sym=     2a  
Ene=   -15.6630
Spin= Alpha
Occup=    1.00000
   1         1.00001709
   2        -0.00238452
   3         0.00000000
   4         0.00000000
   5         0.00078576
   6        -0.00010813
   7        -0.00092113
   8         0.00000000
   9        -0.00000000
  10         0.00069482
Sym=     2a  
Ene=   -15.5770
Spin= Beta
Occup=    1.00000
   1         0.99996383
   2        -0.00892292
   3         0.00000000
   4        -0.00000000
   5         0.00050519
   6        -0.00005019
   7        -0.00030265
   8         0.00000000
   9        -0.00000000
  10         0.00010000
Sym=     3a  
Ene=    -1.2217
Spin= Alpha
Occup=    1.00000
   1        -0.00240158
   2         0.73474513
   3        -0.00000000
   4         0.00000000
   5         0.09299556
   6        -0.00604980
   7         0.55678833
   8         0.00000000
   9        -0.00000000
  10        -0.04175750
Sym=     3a  
Ene=    -1.4076
Spin= Beta
Occup=    1.00000
   1         0.00640746
   2        -0.05433198
   3         0.00000000
   4        -0.00000000
   5        -0.02535580
   6         0.00241289
   7        -0.98407001
   8        -0.00000000
   9         0.00000000
  10         0.05364318
Sym=     4a  
Ene=    -1.0676
Spin= Alpha
Occup=    1.00000
   1         0.00606603
   2         0.67140669
   3         0.00000000
   4        -0.00000000
   5        -0.08973698
   6        -0.00502341
   7        -0.80116709
   8        -0.00000000
   9         0.00000000
  10        -0.03763955
Sym=     4a  
Ene=    -0.8173
Spin= Beta
Occup=    1.00000
   1        -0.00214716
   2         0.74942311
   3        -0.00000000
   4         0.00000000
   5         0.03095607
   6        -0.00616109
   7        -0.18839673
   8        -0.00000000
   9         0.00000000
  10        -0.52307146
Sym=     5a  
Ene=    -0.6077
Spin= Alpha
Occup=    1.00000
   1         0.00000000
   2         0.00000000
   3         0.02157066
   4         0.83079962
   5        -0.00000000
   6         0.00000000
   7         0.00000000
   8         0.01255568
   9         0.48358518
  10         0.00000000
Sym=     5a  
Ene=    -0.6879
Spin= Beta
Occup=    1.00000
   1        -0.00000000
   2         0.00000000
   3         0.02787455
   4        -0.00072373
   5         0.00000000
   6        -0.00000000
   7        -0.00000000
   8         0.99666759
   9        -0.02587721
  10        -0.00000000
Sym=     6a  
Ene=    -0.5835
Spin= Alpha
Occup=    1.00000
   1         0.00000000
   2         0.00000000
   3         0.99192773
   4        -0.02575414
   5        -0.00000000
   6         0.00000000
   7         0.00000000
   8         0.06214143
   9        -0.00161342
  10         0.00000000
Sym=     6a  
Ene=    -0.6116
Spin= Beta
Occup=    1.00000
   1         0.02246789
   2         0.69472931
   3         0.00000000
   4        -0.00000000
   5        -0.13869946
   6        -0.00255034
   7        -0.04448897
   8         0.00000000
   9        -0.00000000
  10         0.83281263
Sym=     7a  
Ene=    -0.5578
Spin= Alpha
Occup=    1.00000
   1         0.00392380
   2         0.06275855
   3        -0.00000000
   4        -0.00000000
   5        -0.92480712
   6         0.01603198
   7         0.29353659
   8        -0.00000000
   9        -0.00000000
  10         0.25909543
Sym=     7a  
Ene=    -0.6084
Spin= Beta
Occup=    1.00000
   1         0.00000000
   2         0.00000000
   3         0.00106703
   4         0.04109680
   5        -0.00000000
   6        -0.00000000
   7        -0.00000000
   8         0.02583332
   9         0.99497702
  10         0.00000000
Sym=     8a  
Ene=    -0.5141
Spin= Alpha
Occup=    1.00000
   1         0.00000000
   2         0.00000000
   3        -0.01463992
   4        -0.56386060
   5        -0.00000000
   6         0.00000000
   7         0.00000000
   8         0.02284679
   9         0.87995009
  10         0.00000000
Sym=     8a  
Ene=     0.2131
Spin= Beta
Occup=    0.00000
   1        -0.00000000
   2         0.00000000
   3         1.00368810
   4        -0.02605949
   5         0.00000000
   6         0.00000000
   7         0.00000000
   8        -0.12173947
   9         0.00316081
  10        -0.00000000
Sym=     9a  
Ene=     0.1451
Spin= Alpha
Occup=    0.00000
   1        -0.00000000
   2         0.00000000
   3        -0.15571177
   4         0.00404286
   5        -0.00000000
   6        -0.00000000
   7        -0.00000000
   8         1.00215030
   9        -0.02601956
  10        -0.00000000
Sym=     9a  
Ene=     0.2163
Spin= Beta
Occup=    0.00000
   1        -0.00000000
   2        -0.00000000
   3         0.02604769
   4         1.00323369
   5        -0.00000000
   6         0.00000000
   7         0.00000000
   8        -0.00350150
   9        -0.13486107
  10        -0.00000000
Sym=    10a  
Ene=     0.1952
Spin= Alpha
Occup=    0.00000
   1         0.02160393
   2         0.27050561
   3        -0.00000000
   4         0.00000000
   5         0.46546047
   6        -0.01001917
   7        -0.15616945
   8         0.00000000
   9        -0.00000000
  10         1.01182511
Sym=    10a  
Ene=     0.2641
Spin= Beta
Occup=    0.00000
   1         0.00898558
   2         0.14296641
   3        -0.00000000
   4         0.00000000
   5         1.03333638
   6        -0.01872502
   7        -0.23784390
   8        -0.00000000
   9        -0.00000000
  10         0.35216905
