[Molden Format]
[N_Atoms]
                     2
[Atoms] (AU)
B1          1      5           0.00000000      0.00000000      0.00000000
B2          2      5           0.00000000      0.00000000      1.13383567
[Charge] (Mulliken)
  0.999999999998134     
   1.00000000000186     
[GTO] (AU)
   1
   s  14
  3.336021700E+04  1.039699991E-04
  4.972095200E+03  5.254399956E-04
  1.125641700E+03  2.509059979E-03
  3.164913600E+02  1.031887991E-02
  1.020072600E+02  3.636632969E-02
  3.629587300E+01  1.064607991E-01
  1.397141000E+01  2.403999880E-01
  5.741156000E+00  3.748581168E-01
  2.494268000E+00  3.100066974E-01
  1.114202000E+00  7.922455933E-02
  4.215490000E-01 -4.947589958E-03
  1.696330000E-01 -7.737119935E-03
  6.853500000E-02 -1.501079987E-03
  2.398700000E-02 -1.333299989E-04
   s  14
  3.336021700E+04 -2.030000008E-05
  4.972095200E+03 -1.025700004E-04
  1.125641700E+03 -4.911300020E-04
  3.164913600E+02 -2.026570008E-03
  1.020072600E+02 -7.261010030E-03
  3.629587300E+01 -2.197722009E-02
  1.397141000E+01 -5.408428022E-02
  5.741156000E+00 -1.022402604E-01
  2.494268000E+00 -1.423595206E-01
  1.114202000E+00 -4.658690019E-02
  4.215490000E-01  3.799402916E-01
  1.696330000E-01  5.890463624E-01
  6.853500000E-02  1.749075107E-01
  2.398700000E-02 -1.142030005E-03
   p   9
  5.500000000E+01  1.229800005E-03
  1.336610100E+01  8.827380035E-03
  4.135394000E+00  3.843340015E-02
  1.481256000E+00  1.150031805E-01
  6.021360000E-01  2.733674011E-01
  2.556360000E-01  4.061972116E-01
  1.111510000E-01  3.014967912E-01
  4.764800000E-02  7.684809030E-02
  1.667700000E-02 -8.170000032E-06
 
   2
   s  14
  3.336021700E+04  1.039699991E-04
  4.972095200E+03  5.254399956E-04
  1.125641700E+03  2.509059979E-03
  3.164913600E+02  1.031887991E-02
  1.020072600E+02  3.636632969E-02
  3.629587300E+01  1.064607991E-01
  1.397141000E+01  2.403999880E-01
  5.741156000E+00  3.748581168E-01
  2.494268000E+00  3.100066974E-01
  1.114202000E+00  7.922455933E-02
  4.215490000E-01 -4.947589958E-03
  1.696330000E-01 -7.737119935E-03
  6.853500000E-02 -1.501079987E-03
  2.398700000E-02 -1.333299989E-04
   s  14
  3.336021700E+04 -2.030000008E-05
  4.972095200E+03 -1.025700004E-04
  1.125641700E+03 -4.911300020E-04
  3.164913600E+02 -2.026570008E-03
  1.020072600E+02 -7.261010030E-03
  3.629587300E+01 -2.197722009E-02
  1.397141000E+01 -5.408428022E-02
  5.741156000E+00 -1.022402604E-01
  2.494268000E+00 -1.423595206E-01
  1.114202000E+00 -4.658690019E-02
  4.215490000E-01  3.799402916E-01
  1.696330000E-01  5.890463624E-01
  6.853500000E-02  1.749075107E-01
  2.398700000E-02 -1.142030005E-03
   p   9
  5.500000000E+01  1.229800005E-03
  1.336610100E+01  8.827380035E-03
  4.135394000E+00  3.843340015E-02
  1.481256000E+00  1.150031805E-01
  6.021360000E-01  2.733674011E-01
  2.556360000E-01  4.061972116E-01
  1.111510000E-01  3.014967912E-01
  4.764800000E-02  7.684809030E-02
  1.667700000E-02 -8.170000032E-06
 
[MO]
Sym=     1a  
Ene=   -10.0800
Spin= Alpha
Occup=    2.00000
   1         0.67230113
   2         0.00044748
   3         0.00000000
   4         0.00000000
   5         0.02573232
   6         0.67230113
   7         0.00044748
   8        -0.00000000
   9         0.00000000
  10        -0.02573232
Sym=     2a  
Ene=    -9.3502
Spin= Alpha
Occup=    2.00000
   1        -0.75212774
   2        -0.04434739
   3         0.00000000
   4        -0.00000000
   5        -0.01349109
   6         0.75212774
   7         0.04434739
   8        -0.00000000
   9         0.00000000
  10        -0.01349109
Sym=     3a  
Ene=    -1.6276
Spin= Alpha
Occup=    2.00000
   1        -0.17284861
   2         0.46781665
   3         0.00000000
   4         0.00000000
   5         0.27970564
   6        -0.17284861
   7         0.46781665
   8        -0.00000000
   9         0.00000000
  10        -0.27970564
Sym=     4a  
Ene=    -1.2584
Spin= Alpha
Occup=    1.00000
   1         0.00000000
   2         0.00000000
   3         0.32067133
   4         0.41383059
   5        -0.00000000
   6         0.00000000
   7        -0.00000000
   8         0.32067133
   9         0.41383059
  10         0.00000000
Sym=     5a  
Ene=    -0.0000
Spin= Alpha
Occup=    1.00000
   1        -0.00000000
   2         0.00000000
   3         0.41383059
   4        -0.32067133
   5        -0.00000000
   6         0.00000000
   7        -0.00000000
   8         0.41383059
   9        -0.32067133
  10        -0.00000000
Sym=     6a  
Ene=    -0.8321
Spin= Alpha
Occup=    0.00000
   1         0.02420564
   2        -0.54225217
   3        -0.00000000
   4        -0.00000000
   5         0.43477981
   6        -0.02420564
   7         0.54225217
   8         0.00000000
   9        -0.00000000
  10         0.43477981
Sym=     7a  
Ene=    -0.6508
Spin= Alpha
Occup=    0.00000
   1         0.28283467
   2         0.31220952
   3        -0.00000000
   4        -0.00000000
   5        -1.17826200
   6         0.28283467
   7         0.31220952
   8        -0.00000000
   9        -0.00000000
  10         1.17826200
Sym=     8a  
Ene=    -0.3399
Spin= Alpha
Occup=    0.00000
   1         0.00000000
   2         0.00000000
   3        -1.68661714
   4        -0.01436878
   5        -0.00000000
   6        -0.00000000
   7        -0.00000000
   8         1.68661714
   9         0.01436878
  10        -0.00000000
Sym=     9a  
Ene=    -0.3399
Spin= Alpha
Occup=    0.00000
   1         0.00000000
   2         0.00000000
   3         0.01436878
   4        -1.68661714
   5        -0.00000000
   6         0.00000000
   7        -0.00000000
   8        -0.01436878
   9         1.68661714
  10         0.00000000
Sym=    10a  
Ene=     4.6538
Spin= Alpha
Occup=    0.00000
   1        -3.50386759
   2       -11.24839662
   3        -0.00000000
   4         0.00000000
   5        -3.26111518
   6         3.50386759
   7        11.24839662
   8         0.00000000
   9         0.00000000
  10        -3.26111518
