[Molden Format]
[N_Atoms]
                     2
[Atoms] (AU)
B1          1      5           0.00000000      0.00000000      0.00000000
B2          2      5           0.00000000      0.00000000      1.13383567
[Charge] (Mulliken)
 -1.145750161413162E-012
  1.137756555635860E-012
[GTO] (AU)
   1
   s  14
  3.336021700E+04  1.039699991E-04
  4.972095200E+03  5.254399956E-04
  1.125641700E+03  2.509059979E-03
  3.164913600E+02  1.031887991E-02
  1.020072600E+02  3.636632969E-02
  3.629587300E+01  1.064607991E-01
  1.397141000E+01  2.403999880E-01
  5.741156000E+00  3.748581168E-01
  2.494268000E+00  3.100066974E-01
  1.114202000E+00  7.922455933E-02
  4.215490000E-01 -4.947589958E-03
  1.696330000E-01 -7.737119935E-03
  6.853500000E-02 -1.501079987E-03
  2.398700000E-02 -1.333299989E-04
   s  14
  3.336021700E+04 -2.030000008E-05
  4.972095200E+03 -1.025700004E-04
  1.125641700E+03 -4.911300020E-04
  3.164913600E+02 -2.026570008E-03
  1.020072600E+02 -7.261010030E-03
  3.629587300E+01 -2.197722009E-02
  1.397141000E+01 -5.408428022E-02
  5.741156000E+00 -1.022402604E-01
  2.494268000E+00 -1.423595206E-01
  1.114202000E+00 -4.658690019E-02
  4.215490000E-01  3.799402916E-01
  1.696330000E-01  5.890463624E-01
  6.853500000E-02  1.749075107E-01
  2.398700000E-02 -1.142030005E-03
   p   9
  5.500000000E+01  1.229800005E-03
  1.336610100E+01  8.827380035E-03
  4.135394000E+00  3.843340015E-02
  1.481256000E+00  1.150031805E-01
  6.021360000E-01  2.733674011E-01
  2.556360000E-01  4.061972116E-01
  1.111510000E-01  3.014967912E-01
  4.764800000E-02  7.684809030E-02
  1.667700000E-02 -8.170000032E-06
 
   2
   s  14
  3.336021700E+04  1.039699991E-04
  4.972095200E+03  5.254399956E-04
  1.125641700E+03  2.509059979E-03
  3.164913600E+02  1.031887991E-02
  1.020072600E+02  3.636632969E-02
  3.629587300E+01  1.064607991E-01
  1.397141000E+01  2.403999880E-01
  5.741156000E+00  3.748581168E-01
  2.494268000E+00  3.100066974E-01
  1.114202000E+00  7.922455933E-02
  4.215490000E-01 -4.947589958E-03
  1.696330000E-01 -7.737119935E-03
  6.853500000E-02 -1.501079987E-03
  2.398700000E-02 -1.333299989E-04
   s  14
  3.336021700E+04 -2.030000008E-05
  4.972095200E+03 -1.025700004E-04
  1.125641700E+03 -4.911300020E-04
  3.164913600E+02 -2.026570008E-03
  1.020072600E+02 -7.261010030E-03
  3.629587300E+01 -2.197722009E-02
  1.397141000E+01 -5.408428022E-02
  5.741156000E+00 -1.022402604E-01
  2.494268000E+00 -1.423595206E-01
  1.114202000E+00 -4.658690019E-02
  4.215490000E-01  3.799402916E-01
  1.696330000E-01  5.890463624E-01
  6.853500000E-02  1.749075107E-01
  2.398700000E-02 -1.142030005E-03
   p   9
  5.500000000E+01  1.229800005E-03
  1.336610100E+01  8.827380035E-03
  4.135394000E+00  3.843340015E-02
  1.481256000E+00  1.150031805E-01
  6.021360000E-01  2.733674011E-01
  2.556360000E-01  4.061972116E-01
  1.111510000E-01  3.014967912E-01
  4.764800000E-02  7.684809030E-02
  1.667700000E-02 -8.170000032E-06
 
[MO]
Sym=     1a  
Ene=    -9.0378
Spin= Alpha
Occup=    1.00000
   1         0.67191348
   2         0.00153027
   3         0.00000000
   4         0.00000000
   5         0.02633101
   6         0.67191348
   7         0.00153027
   8        -0.00000000
   9         0.00000000
  10        -0.02633101
Sym=     1a  
Ene=    -9.0378
Spin= Beta
Occup=    1.00000
   1         0.67191348
   2         0.00153027
   3         0.00000000
   4         0.00000000
   5         0.02633101
   6         0.67191348
   7         0.00153027
   8        -0.00000000
   9         0.00000000
  10        -0.02633101
Sym=     2a  
Ene=    -8.3049
Spin= Alpha
Occup=    1.00000
   1        -0.75036537
   2        -0.03968289
   3         0.00000000
   4        -0.00000000
   5        -0.01119354
   6         0.75036537
   7         0.03968289
   8        -0.00000000
   9         0.00000000
  10        -0.01119354
Sym=     2a  
Ene=    -8.3049
Spin= Beta
Occup=    1.00000
   1        -0.75036537
   2        -0.03968289
   3         0.00000000
   4        -0.00000000
   5        -0.01119354
   6         0.75036537
   7         0.03968289
   8        -0.00000000
   9         0.00000000
  10        -0.01119354
Sym=     3a  
Ene=    -0.8312
Spin= Alpha
Occup=    1.00000
   1        -0.13483495
   2         0.50549957
   3         0.00000000
   4         0.00000000
   5         0.11890365
   6        -0.13483495
   7         0.50549957
   8        -0.00000000
   9         0.00000000
  10        -0.11890365
Sym=     3a  
Ene=    -0.8312
Spin= Beta
Occup=    1.00000
   1        -0.13483495
   2         0.50549957
   3         0.00000000
   4         0.00000000
   5         0.11890365
   6        -0.13483495
   7         0.50549957
   8        -0.00000000
   9         0.00000000
  10        -0.11890365
Sym=     4a  
Ene=    -0.6590
Spin= Alpha
Occup=    1.00000
   1         0.00000000
   2        -0.00000000
   3        -0.06587355
   4         0.51937129
   5         0.00000000
   6        -0.00000000
   7         0.00000000
   8        -0.06587355
   9         0.51937129
  10         0.00000000
Sym=     4a  
Ene=    -0.6590
Spin= Beta
Occup=    1.00000
   1         0.00000000
   2        -0.00000000
   3        -0.06587355
   4         0.51937129
   5         0.00000000
   6        -0.00000000
   7         0.00000000
   8        -0.06587355
   9         0.51937129
  10         0.00000000
Sym=     5a  
Ene=    -0.6590
Spin= Alpha
Occup=    1.00000
   1        -0.00000000
   2         0.00000000
   3         0.51937129
   4         0.06587355
   5        -0.00000000
   6         0.00000000
   7        -0.00000000
   8         0.51937129
   9         0.06587355
  10        -0.00000000
Sym=     5a  
Ene=    -0.6590
Spin= Beta
Occup=    1.00000
   1        -0.00000000
   2         0.00000000
   3         0.51937129
   4         0.06587355
   5        -0.00000000
   6         0.00000000
   7        -0.00000000
   8         0.51937129
   9         0.06587355
  10        -0.00000000
Sym=     6a  
Ene=    -0.1063
Spin= Alpha
Occup=    0.00000
   1         0.03007300
   2        -0.52720098
   3        -0.00000000
   4        -0.00000000
   5         0.43914315
   6        -0.03007300
   7         0.52720098
   8         0.00000000
   9        -0.00000000
  10         0.43914315
Sym=     6a  
Ene=    -0.1063
Spin= Beta
Occup=    0.00000
   1         0.03007300
   2        -0.52720098
   3        -0.00000000
   4        -0.00000000
   5         0.43914315
   6        -0.03007300
   7         0.52720098
   8         0.00000000
   9        -0.00000000
  10         0.43914315
Sym=     7a  
Ene=     0.1839
Spin= Alpha
Occup=    0.00000
   1         0.30366545
   2         0.24656693
   3        -0.00000000
   4        -0.00000000
   5        -1.20514204
   6         0.30366545
   7         0.24656693
   8        -0.00000000
   9        -0.00000000
  10         1.20514204
Sym=     7a  
Ene=     0.1839
Spin= Beta
Occup=    0.00000
   1         0.30366545
   2         0.24656693
   3        -0.00000000
   4        -0.00000000
   5        -1.20514204
   6         0.30366545
   7         0.24656693
   8        -0.00000000
   9        -0.00000000
  10         1.20514204
Sym=     8a  
Ene=     0.4562
Spin= Alpha
Occup=    0.00000
   1         0.00000000
   2         0.00000000
   3        -1.68663223
   4        -0.01247213
   5        -0.00000000
   6        -0.00000000
   7        -0.00000000
   8         1.68663223
   9         0.01247213
  10        -0.00000000
Sym=     8a  
Ene=     0.4562
Spin= Beta
Occup=    0.00000
   1         0.00000000
   2         0.00000000
   3        -1.68663223
   4        -0.01247213
   5        -0.00000000
   6        -0.00000000
   7        -0.00000000
   8         1.68663223
   9         0.01247213
  10        -0.00000000
Sym=     9a  
Ene=     0.4562
Spin= Alpha
Occup=    0.00000
   1         0.00000000
   2         0.00000000
   3         0.01247213
   4        -1.68663223
   5        -0.00000000
   6         0.00000000
   7        -0.00000000
   8        -0.01247213
   9         1.68663223
  10         0.00000000
Sym=     9a  
Ene=     0.4562
Spin= Beta
Occup=    0.00000
   1         0.00000000
   2         0.00000000
   3         0.01247213
   4        -1.68663223
   5        -0.00000000
   6         0.00000000
   7        -0.00000000
   8        -0.01247213
   9         1.68663223
  10         0.00000000
Sym=    10a  
Ene=     5.4915
Spin= Alpha
Occup=    0.00000
   1        -3.50419998
   2       -11.24912952
   3        -0.00000000
   4         0.00000000
   5        -3.26053917
   6         3.50419998
   7        11.24912952
   8         0.00000000
   9         0.00000000
  10        -3.26053917
Sym=    10a  
Ene=     5.4915
Spin= Beta
Occup=    0.00000
   1        -3.50419998
   2       -11.24912952
   3        -0.00000000
   4         0.00000000
   5        -3.26053917
   6         3.50419998
   7        11.24912952
   8         0.00000000
   9         0.00000000
  10        -3.26053917
