[Molden Format]
[N_Atoms]
                     2
[Atoms] (AU)
B1          1      5           0.00000000      0.00000000      0.00000000
B2          2      5           0.00000000      0.00000000      1.13383567
[Charge] (Mulliken)
 -1.122657522500958E-012
  1.115552095143357E-012
[GTO] (AU)
   1
   s  14
  3.336021700E+04  1.039699991E-04
  4.972095200E+03  5.254399956E-04
  1.125641700E+03  2.509059979E-03
  3.164913600E+02  1.031887991E-02
  1.020072600E+02  3.636632969E-02
  3.629587300E+01  1.064607991E-01
  1.397141000E+01  2.403999880E-01
  5.741156000E+00  3.748581168E-01
  2.494268000E+00  3.100066974E-01
  1.114202000E+00  7.922455933E-02
  4.215490000E-01 -4.947589958E-03
  1.696330000E-01 -7.737119935E-03
  6.853500000E-02 -1.501079987E-03
  2.398700000E-02 -1.333299989E-04
   s  14
  3.336021700E+04 -2.030000008E-05
  4.972095200E+03 -1.025700004E-04
  1.125641700E+03 -4.911300020E-04
  3.164913600E+02 -2.026570008E-03
  1.020072600E+02 -7.261010030E-03
  3.629587300E+01 -2.197722009E-02
  1.397141000E+01 -5.408428022E-02
  5.741156000E+00 -1.022402604E-01
  2.494268000E+00 -1.423595206E-01
  1.114202000E+00 -4.658690019E-02
  4.215490000E-01  3.799402916E-01
  1.696330000E-01  5.890463624E-01
  6.853500000E-02  1.749075107E-01
  2.398700000E-02 -1.142030005E-03
   p   9
  5.500000000E+01  1.229800005E-03
  1.336610100E+01  8.827380035E-03
  4.135394000E+00  3.843340015E-02
  1.481256000E+00  1.150031805E-01
  6.021360000E-01  2.733674011E-01
  2.556360000E-01  4.061972116E-01
  1.111510000E-01  3.014967912E-01
  4.764800000E-02  7.684809030E-02
  1.667700000E-02 -8.170000032E-06
 
   2
   s  14
  3.336021700E+04  1.039699991E-04
  4.972095200E+03  5.254399956E-04
  1.125641700E+03  2.509059979E-03
  3.164913600E+02  1.031887991E-02
  1.020072600E+02  3.636632969E-02
  3.629587300E+01  1.064607991E-01
  1.397141000E+01  2.403999880E-01
  5.741156000E+00  3.748581168E-01
  2.494268000E+00  3.100066974E-01
  1.114202000E+00  7.922455933E-02
  4.215490000E-01 -4.947589958E-03
  1.696330000E-01 -7.737119935E-03
  6.853500000E-02 -1.501079987E-03
  2.398700000E-02 -1.333299989E-04
   s  14
  3.336021700E+04 -2.030000008E-05
  4.972095200E+03 -1.025700004E-04
  1.125641700E+03 -4.911300020E-04
  3.164913600E+02 -2.026570008E-03
  1.020072600E+02 -7.261010030E-03
  3.629587300E+01 -2.197722009E-02
  1.397141000E+01 -5.408428022E-02
  5.741156000E+00 -1.022402604E-01
  2.494268000E+00 -1.423595206E-01
  1.114202000E+00 -4.658690019E-02
  4.215490000E-01  3.799402916E-01
  1.696330000E-01  5.890463624E-01
  6.853500000E-02  1.749075107E-01
  2.398700000E-02 -1.142030005E-03
   p   9
  5.500000000E+01  1.229800005E-03
  1.336610100E+01  8.827380035E-03
  4.135394000E+00  3.843340015E-02
  1.481256000E+00  1.150031805E-01
  6.021360000E-01  2.733674011E-01
  2.556360000E-01  4.061972116E-01
  1.111510000E-01  3.014967912E-01
  4.764800000E-02  7.684809030E-02
  1.667700000E-02 -8.170000032E-06
 
[MO]
Sym=     1a  
Ene=    -9.0381
Spin= Alpha
Occup=    2.00000
   1         0.67191206
   2         0.00152725
   3         0.00000000
   4         0.00000000
   5         0.02633789
   6         0.67191206
   7         0.00152725
   8        -0.00000000
   9         0.00000000
  10        -0.02633789
Sym=     2a  
Ene=    -8.3051
Spin= Alpha
Occup=    2.00000
   1        -0.75038144
   2        -0.03971571
   3         0.00000000
   4        -0.00000000
   5        -0.01122087
   6         0.75038144
   7         0.03971571
   8        -0.00000000
   9         0.00000000
  10        -0.01122087
Sym=     3a  
Ene=    -0.8314
Spin= Alpha
Occup=    2.00000
   1        -0.13484146
   2         0.50549262
   3         0.00000000
   4         0.00000000
   5         0.11893770
   6        -0.13484146
   7         0.50549262
   8        -0.00000000
   9         0.00000000
  10        -0.11893770
Sym=     4a  
Ene=    -0.6592
Spin= Alpha
Occup=    2.00000
   1         0.00000000
   2        -0.00000000
   3        -0.06587355
   4         0.51937129
   5         0.00000000
   6        -0.00000000
   7         0.00000000
   8        -0.06587355
   9         0.51937129
  10         0.00000000
Sym=     5a  
Ene=    -0.6583
Spin= Alpha
Occup=    1.99501
   1        -0.00000000
   2         0.00000000
   3         0.51937129
   4         0.06587355
   5        -0.00000000
   6         0.00000000
   7        -0.00000000
   8         0.51937129
   9         0.06587355
  10        -0.00000000
Sym=     6a  
Ene=    -0.0002
Spin= Alpha
Occup=    0.00499
   1        -0.08397523
   2        -0.89291572
   3        -0.00000000
   4        -0.00000000
   5         0.33282804
   6         0.08397523
   7         0.89291572
   8         0.00000000
   9        -0.00000000
  10         0.33282804
Sym=     7a  
Ene=     0.1837
Spin= Alpha
Occup=    0.00000
   1         0.30366569
   2         0.24658119
   3        -0.00000000
   4        -0.00000000
   5        -1.20513853
   6         0.30366569
   7         0.24658119
   8        -0.00000000
   9        -0.00000000
  10         1.20513853
Sym=     8a  
Ene=     0.4561
Spin= Alpha
Occup=    0.00000
   1         0.00000000
   2         0.00000000
   3         0.21222669
   4        -1.67327334
   5        -0.00000000
   6         0.00000000
   7        -0.00000000
   8        -0.21222669
   9         1.67327334
  10         0.00000000
Sym=     9a  
Ene=     0.4562
Spin= Alpha
Occup=    0.00000
   1         0.00000000
   2         0.00000000
   3        -1.67327334
   4        -0.21222669
   5        -0.00000000
   6        -0.00000000
   7        -0.00000000
   8         1.67327334
   9         0.21222669
  10        -0.00000000
Sym=    10a  
Ene=     5.4856
Spin= Alpha
Occup=    0.00000
   1        -3.50331928
   2       -11.22602132
   3        -0.00000000
   4         0.00000000
   5        -3.27310056
   6         3.50331928
   7        11.22602132
   8        -0.00000000
   9         0.00000000
  10        -3.27310056
