[Molden Format]
[N_Atoms]
                     2
[Atoms] (AU)
C1          1      6           0.00000000      0.00000000      0.00000000
N2          2      7           0.00000000      0.00000000      3.02356180
[Charge] (Mulliken)
  0.158726424763756     
 -0.158726424763772     
[GTO] (AU)
   1
   s  14
  5.055750100E+04  1.128874000E-04
  7.524785600E+03  5.295373000E-04
  1.694327600E+03  2.450038300E-03
  4.728227900E+02  1.005398470E-02
  1.517107500E+02  3.545398060E-02
  5.391874600E+01  1.044071086E-01
  2.065931100E+01  2.412894918E-01
  8.383976000E+00  3.834225483E-01
  3.577015000E+00  3.078514393E-01
  1.547118000E+00  6.872442990E-02
  6.130130000E-01  2.224445000E-04
  2.460680000E-01  1.976748900E-03
  9.908700000E-02  2.057859400E-03
  3.468000000E-02  4.182020000E-04
   s  14
  5.055750100E+04 -2.507420000E-05
  7.524785600E+03 -1.175945000E-04
  1.694327600E+03 -5.456275000E-04
  4.728227900E+02 -2.245077100E-03
  1.517107500E+02 -8.043471800E-03
  5.391874600E+01 -2.442588710E-02
  2.065931100E+01 -6.136791180E-02
  8.383976000E+00 -1.177767835E-01
  3.577015000E+00 -1.550487783E-01
  1.547118000E+00 -1.933316860E-02
  6.130130000E-01  3.996930678E-01
  2.460680000E-01  5.589420949E-01
  9.908700000E-02  1.711195023E-01
  3.468000000E-02  7.456244600E-03
   p   9
  8.333315500E+01  1.344656000E-03
  1.955761100E+01  1.023555500E-02
  6.080365000E+00  4.520067100E-02
  2.179317000E+00  1.410756198E-01
  8.651500000E-01  3.047388085E-01
  3.619440000E-01  3.995281011E-01
  1.547400000E-01  2.719163432E-01
  6.542900000E-02  5.857669330E-02
  2.290000000E-02 -1.263813000E-04
 
   2
   s  14
  7.476171500E+04  1.182599996E-04
  1.112365400E+04  5.172899983E-04
  2.512685700E+03  2.266659992E-03
  7.037772900E+02  9.145289970E-03
  2.254787900E+02  3.239342989E-02
  7.961581000E+01  9.770792967E-02
  3.023728300E+01  2.317036792E-01
  1.226362200E+01  3.768898887E-01
  5.265086000E+00  3.177420689E-01
  2.333471000E+00  8.211308973E-02
  9.018560000E-01  3.312089989E-03
  3.583360000E-01  3.720819988E-03
  1.410930000E-01  3.165419989E-03
  4.938300000E-02  4.595799985E-04
   s  14
  7.476171500E+04 -2.707000010E-05
  1.112365400E+04 -1.183700004E-04
  2.512685700E+03 -5.203800020E-04
  7.037772900E+02 -2.102930008E-03
  2.254787900E+02 -7.568200028E-03
  7.961581000E+01 -2.346767009E-02
  3.023728300E+01 -6.042901023E-02
  1.226362200E+01 -1.170549104E-01
  5.265086000E+00 -1.555321506E-01
  2.333471000E+00 -2.468935009E-02
  9.018560000E-01  3.625054514E-01
  3.583360000E-01  5.550845021E-01
  1.410930000E-01  2.148376908E-01
  4.938300000E-02  8.983850034E-03
   p   9
  1.266665700E+02  1.233630000E-03
  2.983738900E+01  9.493409996E-03
  9.394038000E+00  4.293961998E-02
  3.405104000E+00  1.362925399E-01
  1.350000000E+00  2.921362499E-01
  5.576960000E-01  3.887887598E-01
  2.324490000E-01  2.946801399E-01
  9.426400000E-02  8.012875997E-02
  3.299200000E-02  5.405199998E-04
 
[MO]
Sym=     1a  
Ene=   -15.6050
Spin= Alpha
Occup=    1.00000
   1        -0.00014811
   2        -0.00366031
   3        -0.00000069
   4         0.00000029
   5        -0.00049775
   6         1.00008959
   7        -0.00468132
   8        -0.00000102
   9         0.00000043
  10        -0.00074373
Sym=     1a  
Ene=   -15.6050
Spin= Beta
Occup=    1.00000
   1        -0.00014811
   2        -0.00366031
   3        -0.00000069
   4         0.00000029
   5        -0.00049775
   6         1.00008959
   7        -0.00468132
   8        -0.00000102
   9         0.00000043
  10        -0.00074373
Sym=     2a  
Ene=   -11.4170
Spin= Alpha
Occup=    1.00000
   1         1.00001433
   2        -0.00465571
   3        -0.00000053
   4         0.00000022
   5         0.00133058
   6        -0.00016015
   7        -0.00024918
   8        -0.00000071
   9         0.00000030
  10         0.00049953
Sym=     2a  
Ene=   -11.4170
Spin= Beta
Occup=    1.00000
   1         1.00001433
   2        -0.00465571
   3        -0.00000053
   4         0.00000022
   5         0.00133058
   6        -0.00016015
   7        -0.00024918
   8        -0.00000071
   9         0.00000030
  10         0.00049953
Sym=     3a  
Ene=    -0.9901
Spin= Alpha
Occup=    1.00000
   1        -0.02053765
   2        -0.03199464
   3        -0.00006479
   4         0.00002745
   5         0.17213647
   6        -0.00157712
   7         0.93347629
   8        -0.00009144
   9         0.00003874
  10        -0.02279009
Sym=     3a  
Ene=    -0.9901
Spin= Beta
Occup=    1.00000
   1        -0.02053765
   2        -0.03199464
   3        -0.00006479
   4         0.00002745
   5         0.17213647
   6        -0.00157712
   7         0.93347629
   8        -0.00009144
   9         0.00003874
  10        -0.02279009
Sym=     4a  
Ene=    -0.4053
Spin= Alpha
Occup=    1.00000
   1        -0.00000033
   2        -0.00048438
   3         0.48436647
   4        -0.20522434
   5         0.00001621
   6         0.00001157
   7         0.00024419
   8         0.70234047
   9        -0.29757915
  10         0.00014588
Sym=     4a  
Ene=    -0.4053
Spin= Beta
Occup=    1.00000
   1        -0.00000033
   2        -0.00048438
   3         0.48436647
   4        -0.20522434
   5         0.00001621
   6         0.00001157
   7         0.00024419
   8         0.70234047
   9        -0.29757915
  10         0.00014588
Sym=     5a  
Ene=    -0.4053
Spin= Alpha
Occup=    1.00000
   1         0.00000000
   2         0.00000000
   3         0.20522437
   4         0.48436654
   5        -0.00000000
   6        -0.00000000
   7        -0.00000000
   8         0.29757919
   9         0.70234057
  10        -0.00000000
Sym=     5a  
Ene=    -0.4053
Spin= Beta
Occup=    1.00000
   1         0.00000000
   2         0.00000000
   3         0.20522437
   4         0.48436654
   5        -0.00000000
   6        -0.00000000
   7        -0.00000000
   8         0.29757919
   9         0.70234057
  10        -0.00000000
Sym=     6a  
Ene=    -0.2571
Spin= Alpha
Occup=    1.00000
   1         0.02294919
   2         0.26335032
   3        -0.00002919
   4         0.00001237
   5        -0.62513979
   6         0.02408936
   7         0.29833618
   8        -0.00004597
   9         0.00001948
  10         0.65420226
Sym=     6a  
Ene=    -0.2571
Spin= Beta
Occup=    0.00000
   1         0.02294919
   2         0.26335032
   3        -0.00002919
   4         0.00001237
   5        -0.62513979
   6         0.02408936
   7         0.29833618
   8        -0.00004597
   9         0.00001948
  10         0.65420226
Sym=     7a  
Ene=     0.0212
Spin= Alpha
Occup=    1.00000
   1        -0.00031116
   2        -0.94705980
   3        -0.00025635
   4         0.00010862
   5         0.06232850
   6         0.01683822
   7         0.19594669
   8        -0.00036724
   9         0.00015560
  10         0.20306991
Sym=     7a  
Ene=     0.0212
Spin= Beta
Occup=    1.00000
   1        -0.00031116
   2        -0.94705980
   3        -0.00025635
   4         0.00010862
   5         0.06232850
   6         0.01683822
   7         0.19594669
   8        -0.00036724
   9         0.00015560
  10         0.20306991
Sym=     8a  
Ene=     0.0749
Spin= Alpha
Occup=    0.00000
   1        -0.00000000
   2        -0.00000000
   3        -0.33904107
   4        -0.80023706
   5        -0.00000000
   6         0.00000000
   7         0.00000000
   8         0.26175628
   9         0.61782214
  10        -0.00000000
Sym=     8a  
Ene=     0.0749
Spin= Beta
Occup=    0.00000
   1        -0.00000000
   2        -0.00000000
   3        -0.33904107
   4        -0.80023706
   5        -0.00000000
   6         0.00000000
   7         0.00000000
   8         0.26175628
   9         0.61782214
  10        -0.00000000
Sym=     9a  
Ene=     0.0749
Spin= Alpha
Occup=    0.00000
   1         0.00000046
   2         0.00000737
   3        -0.80023706
   4         0.33904107
   5         0.00000599
   6        -0.00000044
   7        -0.00000570
   8         0.61782214
   9        -0.26175629
  10         0.00000812
Sym=     9a  
Ene=     0.0749
Spin= Beta
Occup=    0.00000
   1         0.00000046
   2         0.00000737
   3        -0.80023706
   4         0.33904107
   5         0.00000599
   6        -0.00000044
   7        -0.00000570
   8         0.61782214
   9        -0.26175629
  10         0.00000812
Sym=    10a  
Ene=     0.4225
Spin= Alpha
Occup=    0.00000
   1        -0.04973530
   2        -0.53774402
   3        -0.00000622
   4         0.00000263
   5        -0.93709499
   6         0.05597348
   7         0.55007951
   8         0.00000554
   9        -0.00000235
  10        -0.88719494
Sym=    10a  
Ene=     0.4225
Spin= Beta
Occup=    0.00000
   1        -0.04973530
   2        -0.53774402
   3        -0.00000622
   4         0.00000263
   5        -0.93709499
   6         0.05597348
   7         0.55007951
   8         0.00000554
   9        -0.00000235
  10        -0.88719494
