[Molden Format]
[N_Atoms]
                     2
[Atoms] (AU)
C1          1      6           0.00000000      0.00000000      0.00000000
N2          2      7           0.00000000      0.00000000      3.02356180
[Charge] (Mulliken)
  1.163325604667254E-002
 -1.163325604671073E-002
[GTO] (AU)
   1
   s  14
  5.055750100E+04  1.128874000E-04
  7.524785600E+03  5.295373000E-04
  1.694327600E+03  2.450038300E-03
  4.728227900E+02  1.005398470E-02
  1.517107500E+02  3.545398060E-02
  5.391874600E+01  1.044071086E-01
  2.065931100E+01  2.412894918E-01
  8.383976000E+00  3.834225483E-01
  3.577015000E+00  3.078514393E-01
  1.547118000E+00  6.872442990E-02
  6.130130000E-01  2.224445000E-04
  2.460680000E-01  1.976748900E-03
  9.908700000E-02  2.057859400E-03
  3.468000000E-02  4.182020000E-04
   s  14
  5.055750100E+04 -2.507420000E-05
  7.524785600E+03 -1.175945000E-04
  1.694327600E+03 -5.456275000E-04
  4.728227900E+02 -2.245077100E-03
  1.517107500E+02 -8.043471800E-03
  5.391874600E+01 -2.442588710E-02
  2.065931100E+01 -6.136791180E-02
  8.383976000E+00 -1.177767835E-01
  3.577015000E+00 -1.550487783E-01
  1.547118000E+00 -1.933316860E-02
  6.130130000E-01  3.996930678E-01
  2.460680000E-01  5.589420949E-01
  9.908700000E-02  1.711195023E-01
  3.468000000E-02  7.456244600E-03
   p   9
  8.333315500E+01  1.344656000E-03
  1.955761100E+01  1.023555500E-02
  6.080365000E+00  4.520067100E-02
  2.179317000E+00  1.410756198E-01
  8.651500000E-01  3.047388085E-01
  3.619440000E-01  3.995281011E-01
  1.547400000E-01  2.719163432E-01
  6.542900000E-02  5.857669330E-02
  2.290000000E-02 -1.263813000E-04
 
   2
   s  14
  7.476171500E+04  1.182599996E-04
  1.112365400E+04  5.172899983E-04
  2.512685700E+03  2.266659992E-03
  7.037772900E+02  9.145289970E-03
  2.254787900E+02  3.239342989E-02
  7.961581000E+01  9.770792967E-02
  3.023728300E+01  2.317036792E-01
  1.226362200E+01  3.768898887E-01
  5.265086000E+00  3.177420689E-01
  2.333471000E+00  8.211308973E-02
  9.018560000E-01  3.312089989E-03
  3.583360000E-01  3.720819988E-03
  1.410930000E-01  3.165419989E-03
  4.938300000E-02  4.595799985E-04
   s  14
  7.476171500E+04 -2.707000010E-05
  1.112365400E+04 -1.183700004E-04
  2.512685700E+03 -5.203800020E-04
  7.037772900E+02 -2.102930008E-03
  2.254787900E+02 -7.568200028E-03
  7.961581000E+01 -2.346767009E-02
  3.023728300E+01 -6.042901023E-02
  1.226362200E+01 -1.170549104E-01
  5.265086000E+00 -1.555321506E-01
  2.333471000E+00 -2.468935009E-02
  9.018560000E-01  3.625054514E-01
  3.583360000E-01  5.550845021E-01
  1.410930000E-01  2.148376908E-01
  4.938300000E-02  8.983850034E-03
   p   9
  1.266665700E+02  1.233630000E-03
  2.983738900E+01  9.493409996E-03
  9.394038000E+00  4.293961998E-02
  3.405104000E+00  1.362925399E-01
  1.350000000E+00  2.921362499E-01
  5.576960000E-01  3.887887598E-01
  2.324490000E-01  2.946801399E-01
  9.426400000E-02  8.012875997E-02
  3.299200000E-02  5.405199998E-04
 
[MO]
Sym=     1a  
Ene=   -15.6160
Spin= Alpha
Occup=    1.00000
   1        -0.00010378
   2        -0.00079409
   3        -0.00000000
   4         0.00000000
   5        -0.00035157
   6         1.00000436
   7        -0.00745355
   8        -0.00000000
   9        -0.00000000
  10        -0.00152827
Sym=     1a  
Ene=   -15.6750
Spin= Beta
Occup=    1.00000
   1        -0.00025170
   2        -0.00162567
   3        -0.00000000
   4         0.00000000
   5        -0.00129149
   6         1.00008958
   7        -0.00304960
   8        -0.00000000
   9         0.00000000
  10        -0.00216707
Sym=     2a  
Ene=   -11.3370
Spin= Alpha
Occup=    1.00000
   1         1.00003637
   2         0.00145100
   3         0.00000000
   4        -0.00000000
   5         0.00048206
   6        -0.00026985
   7        -0.00110775
   8        -0.00000000
   9         0.00000000
  10         0.00030990
Sym=     2a  
Ene=   -11.2580
Spin= Beta
Occup=    1.00000
   1         0.99999209
   2        -0.00418366
   3         0.00000000
   4        -0.00000000
   5         0.00055151
   6        -0.00011546
   7        -0.00034823
   8         0.00000000
   9         0.00000000
  10        -0.00014751
Sym=     3a  
Ene=    -1.0260
Spin= Alpha
Occup=    1.00000
   1        -0.01753191
   2         0.65986771
   3        -0.00000000
   4        -0.00000000
   5         0.08668601
   6        -0.01446894
   7         0.51367018
   8        -0.00000000
   9         0.00000000
  10        -0.13862892
Sym=     3a  
Ene=    -1.1457
Spin= Beta
Occup=    1.00000
   1        -0.02206851
   2         0.13421113
   3        -0.00000000
   4        -0.00000000
   5         0.09312510
   6        -0.00372409
   7         0.90962364
   8        -0.00000000
   9        -0.00000000
  10        -0.09660762
Sym=     4a  
Ene=    -0.7658
Spin= Alpha
Occup=    1.00000
   1        -0.00957057
   2        -0.67533888
   3        -0.00000000
   4        -0.00000000
   5         0.33000603
   6         0.00592823
   7         0.70087790
   8         0.00000000
   9         0.00000000
  10         0.10405486
Sym=     4a  
Ene=    -0.5674
Spin= Beta
Occup=    1.00000
   1         0.01331310
   2        -0.58254649
   3        -0.00000000
   4        -0.00000000
   5        -0.22721570
   6         0.02578248
   7         0.44054005
   8        -0.00000000
   9        -0.00000000
  10         0.58627324
Sym=     5a  
Ene=    -0.4832
Spin= Alpha
Occup=    1.00000
   1         0.01861938
   2         0.13682434
   3         0.00000000
   4         0.00000000
   5        -0.62297732
   6         0.02842364
   7         0.42386878
   8         0.00000000
   9         0.00000000
  10         0.63998512
Sym=     5a  
Ene=    -0.5636
Spin= Beta
Occup=    1.00000
   1         0.00000000
   2        -0.00000000
   3         0.03731405
   4         0.08482396
   5        -0.00000000
   6         0.00000000
   7         0.00000000
   8         0.39440689
   9         0.89658331
  10         0.00000000
Sym=     6a  
Ene=    -0.4708
Spin= Alpha
Occup=    1.00000
   1        -0.00000000
   2        -0.00000000
   3        -0.57651756
   4         0.76806737
   5         0.00000000
   6        -0.00000000
   7        -0.00000000
   8        -0.09416151
   9         0.12544697
  10        -0.00000000
Sym=     6a  
Ene=    -0.5636
Spin= Beta
Occup=    1.00000
   1         0.00000000
   2        -0.00000000
   3        -0.08482396
   4         0.03731405
   5        -0.00000000
   6         0.00000000
   7         0.00000000
   8        -0.89658331
   9         0.39440689
  10         0.00000000
Sym=     7a  
Ene=    -0.4708
Spin= Alpha
Occup=    1.00000
   1        -0.00000000
   2        -0.00000000
   3         0.76806737
   4         0.57651756
   5         0.00000000
   6        -0.00000000
   7        -0.00000000
   8         0.12544697
   9         0.09416151
  10        -0.00000000
Sym=     7a  
Ene=     0.0455
Spin= Beta
Occup=    0.00000
   1         0.02854141
   2         0.83274666
   3        -0.00000000
   4         0.00000000
   5        -0.40867760
   6        -0.00004183
   7        -0.07261505
   8         0.00000000
   9         0.00000000
  10         0.55514411
Sym=     8a  
Ene=     0.2091
Spin= Alpha
Occup=    0.00000
   1         0.00000000
   2         0.00000000
   3         0.18624719
   4        -0.27398577
   5         0.00000000
   6        -0.00000000
   7        -0.00000000
   8        -0.56427073
   9         0.83009120
  10        -0.00000000
Sym=     8a  
Ene=     0.2524
Spin= Beta
Occup=    0.00000
   1         0.00000000
   2         0.00000000
   3         0.01764814
   4        -1.01151238
   5        -0.00000000
   6         0.00000000
   7         0.00000000
   8        -0.00470157
   9         0.26947294
  10         0.00000000
Sym=     9a  
Ene=     0.2091
Spin= Alpha
Occup=    0.00000
   1         0.00000000
   2         0.00000000
   3        -0.27398577
   4        -0.18624719
   5         0.00000000
   6        -0.00000000
   7        -0.00000000
   8         0.83009120
   9         0.56427073
  10         0.00000000
Sym=     9a  
Ene=     0.2524
Spin= Beta
Occup=    0.00000
   1         0.00000000
   2         0.00000000
   3        -1.01151238
   4        -0.01764814
   5         0.00000000
   6        -0.00000000
   7        -0.00000000
   8         0.26947294
   9         0.00470157
  10         0.00000000
Sym=    10a  
Ene=     0.3969
Spin= Alpha
Occup=    0.00000
   1         0.05130734
   2         0.58844848
   3         0.00000000
   4         0.00000000
   5         0.89327770
   6        -0.05583346
   7        -0.60545740
   8        -0.00000000
   9        -0.00000000
  10         0.90400458
Sym=    10a  
Ene=     0.4828
Spin= Beta
Occup=    0.00000
   1         0.04458392
   2         0.45347885
   3         0.00000000
   4         0.00000000
   5         1.03689246
   6        -0.05762614
   7        -0.52403627
   8        -0.00000000
   9         0.00000000
  10         0.77176033
