[Molden Format]
[N_Atoms]
                     2
[Atoms] (AU)
C1          1      6           0.00000000      0.00000000      0.00000000
LI2         2      3           0.00000000      0.00000000      3.59047964
[Charge] (Mulliken)
 -0.336549297502420     
  0.336549297502398     
[GTO] (AU)
   1
   s  14
  5.055750100E+04  1.128874000E-04
  7.524785600E+03  5.295373000E-04
  1.694327600E+03  2.450038300E-03
  4.728227900E+02  1.005398470E-02
  1.517107500E+02  3.545398060E-02
  5.391874600E+01  1.044071086E-01
  2.065931100E+01  2.412894918E-01
  8.383976000E+00  3.834225483E-01
  3.577015000E+00  3.078514393E-01
  1.547118000E+00  6.872442990E-02
  6.130130000E-01  2.224445000E-04
  2.460680000E-01  1.976748900E-03
  9.908700000E-02  2.057859400E-03
  3.468000000E-02  4.182020000E-04
   s  14
  5.055750100E+04 -2.507420000E-05
  7.524785600E+03 -1.175945000E-04
  1.694327600E+03 -5.456275000E-04
  4.728227900E+02 -2.245077100E-03
  1.517107500E+02 -8.043471800E-03
  5.391874600E+01 -2.442588710E-02
  2.065931100E+01 -6.136791180E-02
  8.383976000E+00 -1.177767835E-01
  3.577015000E+00 -1.550487783E-01
  1.547118000E+00 -1.933316860E-02
  6.130130000E-01  3.996930678E-01
  2.460680000E-01  5.589420949E-01
  9.908700000E-02  1.711195023E-01
  3.468000000E-02  7.456244600E-03
   p   9
  8.333315500E+01  1.344656000E-03
  1.955761100E+01  1.023555500E-02
  6.080365000E+00  4.520067100E-02
  2.179317000E+00  1.410756198E-01
  8.651500000E-01  3.047388085E-01
  3.619440000E-01  3.995281011E-01
  1.547400000E-01  2.719163432E-01
  6.542900000E-02  5.857669330E-02
  2.290000000E-02 -1.263813000E-04
 
   2
   s  14
  9.497934400E+03  9.668999974E-05
  1.416811200E+03  6.087099984E-04
  3.214599400E+02  3.101519992E-03
  9.112416300E+01  1.266904997E-02
  2.999989100E+01  4.248012989E-02
  1.101763100E+01  1.150183297E-01
  4.372801000E+00  2.398650094E-01
  1.831256000E+00  3.584300090E-01
  8.022610000E-01  3.048527792E-01
  3.626480000E-01  8.824261976E-02
  1.139950000E-01 -8.445899977E-04
  5.123700000E-02 -7.943959979E-03
  2.246800000E-02 -3.764419990E-03
  7.860000000E-03 -8.868999976E-05
   s  14
  9.497934400E+03 -1.244999993E-05
  1.416811200E+03 -7.838999954E-05
  3.214599400E+02 -4.007099976E-04
  9.112416300E+01 -1.645249990E-03
  2.999989100E+01 -5.634599967E-03
  1.101763100E+01 -1.590780991E-02
  4.372801000E+00 -3.612581979E-02
  1.831256000E+00 -6.459927962E-02
  8.022610000E-01 -1.008321794E-01
  3.626480000E-01 -9.757613942E-02
  1.139950000E-01  2.301215886E-01
  5.123700000E-02  6.102389764E-01
  2.246800000E-02  2.849406083E-01
  7.860000000E-03  4.026899976E-03
   p   9
  1.311950400E+01  1.524940000E-03
  3.077424200E+00  8.314830000E-03
  1.098800500E+00  1.933203000E-02
  4.357784000E-01  4.934293000E-02
  1.802432000E-01  1.623554000E-01
  7.613330000E-02  3.847505400E-01
  3.254650000E-02  4.336100400E-01
  1.401820000E-02  1.287005900E-01
  4.906400000E-03 -1.018520000E-03
 
[MO]
Sym=     1a  
Ene=   -11.1040
Spin= Alpha
Occup=    1.00000
   1         1.00020842
   2         0.00080635
   3        -0.00000000
   4         0.00000000
   5         0.00167802
   6        -0.00053832
   7        -0.00190938
   8        -0.00000000
   9        -0.00000000
  10         0.00177938
Sym=     1a  
Ene=   -11.0860
Spin= Beta
Occup=    1.00000
   1         1.00015879
   2        -0.00132715
   3         0.00000000
   4        -0.00000000
   5         0.00151772
   6        -0.00042645
   7        -0.00154036
   8        -0.00000000
   9        -0.00000000
  10         0.00134093
Sym=     2a  
Ene=    -2.4644
Spin= Alpha
Occup=    1.00000
   1        -0.00040917
   2         0.00480657
   3         0.00000000
   4         0.00000000
   5         0.00309980
   6         0.99933572
   7         0.01261605
   8        -0.00000000
   9        -0.00000000
  10         0.00186758
Sym=     2a  
Ene=    -2.4624
Spin= Beta
Occup=    1.00000
   1        -0.00036405
   2         0.00434582
   3         0.00000000
   4         0.00000000
   5         0.00329650
   6         0.99934499
   7         0.01233198
   8        -0.00000000
   9        -0.00000000
  10         0.00208061
Sym=     3a  
Ene=    -0.6659
Spin= Alpha
Occup=    1.00000
   1        -0.00846135
   2         0.92051450
   3        -0.00000000
   4        -0.00000000
   5         0.08587451
   6        -0.06235988
   7         0.08696670
   8         0.00000000
   9         0.00000000
  10        -0.07679021
Sym=     3a  
Ene=    -0.5699
Spin= Beta
Occup=    1.00000
   1        -0.00992125
   2         0.89065917
   3         0.00000000
   4         0.00000000
   5         0.10384568
   6        -0.06227917
   7         0.11079648
   8        -0.00000000
   9        -0.00000000
  10        -0.10688770
Sym=     4a  
Ene=    -0.2813
Spin= Alpha
Occup=    1.00000
   1        -0.00000000
   2        -0.00000000
   3        -0.65434404
   4         0.60714533
   5        -0.00000000
   6         0.00000000
   7         0.00000000
   8        -0.20314695
   9         0.18849369
  10        -0.00000000
Sym=     4a  
Ene=    -0.2230
Spin= Beta
Occup=    1.00000
   1        -0.01906445
   2        -0.29460644
   3        -0.00000000
   4        -0.00000000
   5         0.89007941
   6        -0.08259758
   7         0.31576025
   8        -0.00000000
   9        -0.00000000
  10        -0.05002913
Sym=     5a  
Ene=    -0.2175
Spin= Alpha
Occup=    1.00000
   1        -0.02419435
   2        -0.31606798
   3         0.00000000
   4         0.00000000
   5         0.82333809
   6        -0.07621396
   7         0.45311588
   8         0.00000000
   9         0.00000000
  10        -0.04052906
Sym=     5a  
Ene=     0.0241
Spin= Beta
Occup=    0.00000
   1         0.00789502
   2         0.01606622
   3         0.00000000
   4         0.00000000
   5        -0.31201661
   6         0.02117953
   7         0.76651457
   8         0.00000000
   9         0.00000000
  10         0.61208719
Sym=     6a  
Ene=     0.0181
Spin= Alpha
Occup=    0.00000
   1         0.01085905
   2         0.04802622
   3        -0.00000000
   4        -0.00000000
   5        -0.41300368
   6         0.03069733
   7         0.71761178
   8        -0.00000000
   9        -0.00000000
  10         0.62147026
Sym=     6a  
Ene=     0.0478
Spin= Beta
Occup=    0.00000
   1        -0.00000000
   2        -0.00000000
   3         0.14891202
   4         0.16048825
   5         0.00000000
   6        -0.00000000
   7        -0.00000000
   8         0.62671518
   9         0.67543523
  10        -0.00000000
Sym=     7a  
Ene=     0.0386
Spin= Alpha
Occup=    0.00000
   1         0.00000000
   2         0.00000000
   3         0.16874867
   4         0.18186698
   5        -0.00000000
   6         0.00000000
   7         0.00000000
   8         0.61720181
   9         0.66518231
  10         0.00000000
Sym=     7a  
Ene=     0.0595
Spin= Beta
Occup=    0.00000
   1         0.00000000
   2         0.00000000
   3        -0.11827868
   4         0.10974708
   5        -0.00000000
   6         0.00000000
   7         0.00000000
   8        -0.69385514
   9         0.64380644
  10         0.00000000
Sym=     8a  
Ene=     0.0979
Spin= Alpha
Occup=    0.00000
   1        -0.00000000
   2         0.00000000
   3        -0.38305065
   4         0.35542069
   5        -0.00000000
   6         0.00000000
   7        -0.00000000
   8         0.73049657
   9        -0.67780488
  10        -0.00000000
Sym=     8a  
Ene=     0.2387
Spin= Beta
Occup=    0.00000
   1         0.10590931
   2         0.89722000
   3        -0.00000000
   4        -0.00000000
   5         0.42073771
   6        -0.08287326
   7        -0.78710992
   8         0.00000000
   9         0.00000000
  10         1.02484467
Sym=     9a  
Ene=     0.2244
Spin= Alpha
Occup=    0.00000
   1         0.10424397
   2         0.85777213
   3         0.00000000
   4         0.00000000
   5         0.47071067
   6        -0.08600222
   7        -0.76890491
   8        -0.00000000
   9        -0.00000000
  10         1.02231114
Sym=     9a  
Ene=     0.2729
Spin= Beta
Occup=    0.00000
   1        -0.00000000
   2        -0.00000000
   3        -0.68758602
   4        -0.74103809
   5        -0.00000000
   6         0.00000000
   7         0.00000000
   8         0.31965199
   9         0.34450134
  10        -0.00000000
Sym=    10a  
Ene=     0.2493
Spin= Alpha
Occup=    0.00000
   1         0.00000000
   2         0.00000000
   3        -0.68298844
   4        -0.73608310
   5         0.00000000
   6        -0.00000000
   7        -0.00000000
   8         0.33765550
   9         0.36390442
  10         0.00000000
Sym=    10a  
Ene=     0.3233
Spin= Beta
Occup=    0.00000
   1        -0.00000000
   2        -0.00000000
   3        -0.74893530
   4         0.69491359
   5        -0.00000000
   6         0.00000000
   7         0.00000000
   8         0.30571060
   9        -0.28365929
  10        -0.00000000
