   This run of MOLCAS is using the pymolcas driver

                             OPE
                             OPE          NMOL  CASOP  ENMOLC A   SO
                 OPE        NMOLC        AS  OP EN  MO LC     AS  OP
                OPENM       OL CA        SO  PE NM  OL CA     SOP EN
                OP EN      MO   LC       AS  OP ENMOL  CASO   PENMOL
                OP  EN     MO   LC       AS  OP EN     MO     LC ASO
               OP   E  NMOL  C  AS       OP  EN MO     LC     AS  OP
               OP  E   NMO   LC AS        OPEN  MO     LCASOP EN   M
               O  PEN   MO  LCA  SO
            OPE   NMO   L   CAS    OP
        OPENMOL  CASOP     ENMOL   CASOPE
     OPENMOLCA   SOPENMOLCASOPEN   MOLCASOPE
    OPENMOLCAS   OP           EN   MOL    CAS
    OPENMOLCAS       OP  ENM        O     LCA
    OPENMOLCAS    OPEN  MOLCASO     P  E  NMO
    OPENMOLCAS     OP               E  N  MOL
    OPENMOLCA   SO           PENM   O  L  CAS    OPEN    MO    LCAS
    OPENMOLCA   SOP           ENM   O  L  CAS   OP  EN  MOLC  AS   O
    OPENMOLCA   SOPE           NM      O  LCA   S      OP  EN MO
    OPENMOLC                AS         O  PEN   M      OL  CA  SOPE
    OPENMO        LCASOPE  NMOL        C  ASO   P      ENMOLC     AS
    OPE     NMO      LCA  SO     P     E   NM   OL  CA SO  PE N   MO
          OPENMOLCA            SOPE   NMO        LCAS  O    P  ENMO
     OPENMOLCASOPENMOLCASOPENMOLCASOPENMOLCA
        OPENMOLCASOPENMOLCASOPENMOLCASOPE
            OPENMOLCASOPENMOLCASOPENM
               OPENMOLCASOPENMOLCA        version: ea724fe96-dirty
                   OPENMOLCASO
                       OPE                tag:

 OpenMolcas is free software; you can redistribute it and/or modify it
 under the terms of the GNU Lesser General Public License version 2.1.
 OpenMolcas is distributed in the hope that it will be useful, but it
 is provided "as is" and without any express or implied warranties.
 For more details see the full text of the license in the file
 LICENSE or in <http://www.gnu.org/licenses/>.

                 Copyright (C) The OpenMolcas Authors
           For the author list and the recommended citation,
                   consult the file CONTRIBUTORS.md

           *************************************************
           * pymolcas version py2.28                       *
           *   build c4a6d18ded8cb6cad61d2372a9abd97c      *
           *   (after the EMIL interpreter by V. Veryazov) *
           *************************************************

configuration info
------------------
C Compiler ID: Intel
C flags: -std=gnu99
Fortran Compiler ID: Intel
Fortran flags: -fpp -i8 -r8 -heap-arrays
Definitions: _MOLCAS_;_I8_;_LINUX_
Parallel: OFF (GA=OFF)


   --------------------------------------------------------------------------------
  |
  |              Project: ozone_180.25
  |       Submitted from: /home/grierjones/DDCASPT2/ozone/ANO-RCC-VTZP/ozone_180.25
  |         Scratch area: /tmp/ozone_180.25
  |      Save outputs to: /home/grierjones/DDCASPT2/ozone/ANO-RCC-VTZP/ozone_180.25
  |               Molcas: /home/grierjones/Test/build
  |
  | Scratch area is empty
  |
  |       MOLCAS_DRIVER = /usr/local/pymolcas
  | MOLCAS_KEEP_WORKDIR = NO
  |  MOLCAS_NEW_WORKDIR = YES
  |       MOLCAS_NPROCS = 1
  |        MOLCAS_PRINT = NORMAL
  |       MOLCAS_SOURCE = /home/grierjones/Test/build
  |    MOLCAS_STRUCTURE = 0
  |
   --------------------------------------------------------------------------------

++ ---------   Input file   ---------

&GATEWAY
coord=ozone_180.25.xyz
Basis = ANO-RCC-VTZP
Group = nosymm
Expert
End of Input

&SEWARD
End of Input

&SCF

>>> COPY $WorkDir/ozone_180.25.scf.h5 $CurrDir/

&RASSCF
Title= RASSCF
FileOrb
/home/grierjones/DDCASPT2/ozone/ANO-RCC-VTZP/ozone_180.00/ozone_180.00.RasOrb
NACTEL
4 0 0
Inactive
10
RAS2
3
Symmetry
1
Spin
1
orblisting
all
ITERation
300 200

>>> COPY $WorkDir/ozone_180.25.rasscf.h5 $CurrDir/

>>> COPY $WorkDir/GMJ_Fock_MO.csv $CurrDir/ozone_180.25.GMJ_Fock_MO.csv

>>> COPY $WorkDir/GMJ_PT2_Fock_MO.csv $CurrDir/ozone_180.25.GMJ_PT2_Fock_MO.csv

&MOTRA
Frozen=0
LUMORB

>>> COPY $WorkDir/GMJ_one_int_indx.csv $CurrDir/ozone_180.25.GMJ_one_int_indx.csv

>>> COPY $WorkDir/GMJ_one_int.csv $CurrDir/ozone_180.25.GMJ_one_int.csv

>>> COPY $WorkDir/GMJ_two_int_indx.csv $CurrDir/ozone_180.25.GMJ_two_int_indx.csv

>>> COPY $WorkDir/GMJ_two_int.csv $CurrDir/ozone_180.25.GMJ_two_int.csv

&CASPT2
Frozen
0
MAXITER
50

>>> FOREACH i IN (B,E,F,G,H)

  >>> FOREACH j IN (P,M)

    >>> IF (-FILE GMJ_e2_${i}_${j}.csv)

      >>> COPY $WorkDir/GMJ_RHS_${i}_${j}.csv $CurrDir/GMJ_RHS_${i}_${j}.csv

      >>> COPY $WorkDir/GMJ_IVECW_${i}_${j}.csv $CurrDir/GMJ_IVECW_${i}_${j}.csv

      >>> COPY $WorkDir/GMJ_IVECX_${i}_${j}.csv $CurrDir/GMJ_IVECX_${i}_${j}.csv

      >>> COPY $WorkDir/GMJ_IVECC2_${i}_${j}.csv $CurrDir/GMJ_IVECC2_${i}_${j}.csv

      >>> COPY $WorkDir/GMJ_e2_${i}_${j}.csv $CurrDir/GMJ_e2_${i}_${j}.csv

    >>> END IF

  >>> END FOREACH

>>> END FOREACH

>>> FOREACH i IN (A,C,D)

  >>> IF (-FILE GMJ_e2_$i.csv)

    >>> COPY $WorkDir/GMJ_RHS_$i.csv $CurrDir/GMJ_RHS_$i.csv

    >>> COPY $WorkDir/GMJ_IVECW_$i.csv $CurrDir/GMJ_IVECW_$i.csv

    >>> COPY $WorkDir/GMJ_IVECX_$i.csv $CurrDir/GMJ_IVECX_$i.csv

    >>> COPY $WorkDir/GMJ_IVECC2_$i.csv $CurrDir/GMJ_IVECC2_$i.csv

    >>> COPY $WorkDir/GMJ_e2_$i.csv $CurrDir/GMJ_e2_$i.csv

  >>> END IF

>>> END FOREACH

-- ----------------------------------

--- Start Module: gateway at Fri Jan  3 04:19:28 2025 ---
 
()()()()()()()()()()()()()()()()()()()()()()()()()()()()()()()()()()()()()()()()()()()()()()()()()()

                                              &GATEWAY

                                   only a single process is used
                       available to each process: 2.0 GB of memory, 1 thread?
()()()()()()()()()()()()()()()()()()()()()()()()()()()()()()()()()()()()()()()()()()()()()()()()()()
 
 ###############################################################################
 ###############################################################################
 ###                                                                         ###
 ###                                                                         ###
 ###                                                                         ###
 ###    WARNING: EXPERT option is ON!                                        ###
 ###                                                                         ###
 ###                                                                         ###
 ###############################################################################
 ###############################################################################
 
++    Symmetry information:
      ---------------------
 
                    Character Table for C1 
 
                             E  
                    a        1  x, y, xy, Rz, z, xz, Ry, yz, Rx, I
--
 
 
++    Basis set information:
      ----------------------
 
 
      Basis set label: O.ANO-RCC...4S3P2D1F.
 
      Electronic valence basis set:
      ------------------
      Associated Effective Charge   8.000000 au
      Associated Actual Charge      8.000000 au
      Nuclear Model: Point charge
 
      Shell  nPrim  nBasis  Cartesian Spherical Contaminant
         s      14       4        X                  
         p       9       3        X                  
         d       4       2                 X         
         f       3       1                 X         
--
 
 
++    Molecular structure info:
      -------------------------
 
                    ************************************************ 
                    **** Cartesian Coordinates / Bohr, Angstrom **** 
                    ************************************************ 
 
     Center  Label                x              y              z                     x              y              z
        1      O1              -0.005269       2.415064       0.000000             -0.002788       1.277997       0.000000
        2      O2               0.000000       0.000000       0.000000              0.000000       0.000000       0.000000
        3      O3              -0.005269      -2.415064       0.000000             -0.002788      -1.277997       0.000000
 
                    *************************************** 
                    *    InterNuclear Distances / Bohr    * 
                    *************************************** 
 
               1 O1            2 O2            3 O3    
    1 O1       0.000000
    2 O2       2.415070        0.000000
    3 O3       4.830129        2.415070        0.000000
 
                    ******************************************* 
                    *    InterNuclear Distances / Angstrom    * 
                    ******************************************* 
 
               1 O1            2 O2            3 O3    
    1 O1       0.000000
    2 O2       1.278000        0.000000
    3 O3       2.555994        1.278000        0.000000
 
                    ************************************** 
                    *    Valence Bond Angles / Degree    * 
                    ************************************** 
                          Atom centers                 Phi
                      1 O1       2 O2       3 O3       179.75
--
 
 
            Nuclear Potential Energy             66.25069740 au
 
 ###############################################################################
 ###############################################################################
 ###                                                                         ###
 ###                                                                         ###
 ###    There were warnings during the execution                             ###
 ###    Please, check the output with care!                                  ###
 ###                                                                         ###
 ###                                                                         ###
 ###############################################################################
 ###############################################################################
--- Stop Module: gateway at Fri Jan  3 04:19:28 2025 /rc=_RC_ALL_IS_WELL_ ---
*** files: xmldump
    saved to directory /home/grierjones/DDCASPT2/ozone/ANO-RCC-VTZP/ozone_180.25

--- Start Module: seward at Fri Jan  3 04:19:28 2025 ---
 
()()()()()()()()()()()()()()()()()()()()()()()()()()()()()()()()()()()()()()()()()()()()()()()()()()

                                              &SEWARD

                                   only a single process is used
                       available to each process: 2.0 GB of memory, 1 thread?
()()()()()()()()()()()()()()()()()()()()()()()()()()()()()()()()()()()()()()()()()()()()()()()()()()
 
 ###############################################################################
 ###############################################################################
 ###                                                                         ###
 ###                                                                         ###
 ###                                                                         ###
 ###    WARNING: EXPERT option is ON!                                        ###
 ###                                                                         ###
 ###                                                                         ###
 ###############################################################################
 ###############################################################################
               SEWARD will generate:
                  Multipole Moment integrals up to order  2
                  Kinetic Energy integrals
                  Nuclear Attraction integrals (point charge)
                  One-Electron Hamiltonian integrals
                  Velocity integrals
                  Relativistic Douglas-Kroll-Hess integrals:
                    - Parametrization         : EXP
                    - DKH order of Hamiltonian: 2
                    - DKH order of Properties : 0
                         - multipole moment operators
                         - electric potential operators
                         - contact operators
                  Atomic mean-field integrals
                  Two-Electron Repulsion integrals
 
                   Integrals are discarded if absolute value <: 0.10E-13
                   Integral cutoff threshold is set to       <: 0.10E-15
 
            Nuclear Potential Energy             66.25069740 au
 
 
      Basis set specifications :
      Symmetry species         a  
      Basis functions           90
 
 
  Input file to MOLDEN was generated!
 
 ###############################################################################
 ###############################################################################
 ###                                                                         ###
 ###                                                                         ###
 ###    There were warnings during the execution                             ###
 ###    Please, check the output with care!                                  ###
 ###                                                                         ###
 ###                                                                         ###
 ###############################################################################
 ###############################################################################
--- Stop Module: seward at Fri Jan  3 04:19:30 2025 /rc=_RC_ALL_IS_WELL_ ---
*** files: ozone_180.25.GssOrb ozone_180.25.guessorb.h5 ozone_180.25.guessorb.molden xmldump
    saved to directory /home/grierjones/DDCASPT2/ozone/ANO-RCC-VTZP/ozone_180.25
--- Module seward spent 2 seconds ---

*** symbolic link created: INPORB -> ozone_180.25.GssOrb
--- Start Module: scf at Fri Jan  3 04:19:30 2025 ---
 
()()()()()()()()()()()()()()()()()()()()()()()()()()()()()()()()()()()()()()()()()()()()()()()()()()

                                                &SCF

                                   only a single process is used
                       available to each process: 2.0 GB of memory, 1 thread?
()()()()()()()()()()()()()()()()()()()()()()()()()()()()()()()()()()()()()()()()()()()()()()()()()()
 
++    Input section:
      --------------
 
      Header of the integral files:
      
       Integrals generated by seward 4.2.0  , Fri Jan  3 04:19:28 2025
 
 
      Cartesian coordinates in Angstrom:
      -----------------------------------------------------
      No.  Label        X            Y            Z        
      -----------------------------------------------------
       1   O1        -0.00278800   1.27799700   0.00000000
       2   O2         0.00000000   0.00000000   0.00000000
       3   O3        -0.00278800  -1.27799700   0.00000000
      -----------------------------------------------------
      Nuclear repulsion energy =   66.25069740
--
 
++    Orbital specifications:
      -----------------------
 
      Symmetry species               1
                                     a
      Frozen orbitals                0
      Aufbau                        12
      Start temperature = 0.500
      End temperature   = 0.010
      Temperature Factor= 0.460
      Deleted orbitals               0
      Total number of orbitals      90
      Number of basis functions     90
--
 
      Molecular charge                           0.000
 
++    Optimization specifications:
      ----------------------------
 
      SCF Algorithm: Conventional
      Minimized density differences are used
      Number of density matrices in core                5
      Maximum number of NDDO SCF iterations           400
      Maximum number of HF SCF iterations             400
      Threshold for SCF energy change            0.10E-08
      Threshold for density matrix               0.10E-03
      Threshold for Fock matrix                  0.15E-03
      Threshold for linear dependence            0.10E-08
      Threshold at which DIIS is turned on       0.15E+00
      Threshold at which QNR/C2DIIS is turned on 0.75E-01
      Threshold for Norm(delta) (QNR/C2DIIS)     0.20E-04
      DIIS extrapolation of the SCF procedure
      All orbitals punched on: SCFORB
--
 
      Input vectors read from INPORB
      Orbital file label: *Guess orbitals
 
 
++ Convergence information
                                   SCF        iterations: Energy and convergence statistics
 
Iter     Tot. SCF        One-elec.       Two-elec.     Energy      Max Dij or  Max Fij      DNorm      TNorm      AccCon     Time
         Energy          Energy          Energy        Change      Delta Norm                                                in Sec.
   1  -221.440112437  -440.063127210   152.372317369   0.00E+00    0.10E+00*   0.26E+01*    0.77E+01   0.11E+03   None         0.
   2  -221.900855661  -429.639988896   141.488435832  -0.46E+00*   0.12E+00*   0.11E+00*    0.81E+01   0.11E+03   EDIIS        0.
   3  -223.703239139  -444.175760053   154.221823511  -0.18E+01*   0.15E+00*   0.27E+00*    0.39E+01   0.11E+03   EDIIS        0.
   4  -224.081693081  -437.508619284   147.176228800  -0.38E+00*   0.19E+00*   0.20E+00*    0.21E+01   0.11E+03   EDIIS        0.
   5  -224.090665650  -441.662451500   151.321088446  -0.90E-02*   0.50E-01*   0.10E+00*    0.79E+00   0.11E+03   EDIIS        0.
   6  -224.172922520  -440.157362360   149.733742436  -0.82E-01*   0.44E-01*   0.44E-01*    0.22E+00   0.11E+03   EDIIS        0.
   7  -224.172331166  -440.251731982   149.828703413   0.59E-03*   0.71E-02*   0.24E-01*    0.15E+00   0.11E+03   EDIIS        0.
   8  -224.313561347  -440.100210696   149.535951945  -0.14E+00*   0.42E-01*   0.24E-01*    0.10E+01   0.11E+03   EDIIS        0.
   9  -224.397299208  -440.302801012   149.654804400  -0.84E-01*   0.28E-01*   0.12E-01*    0.27E+00   0.11E+03   EDIIS        0.
  10  -224.400040989  -440.281988951   149.631250558  -0.27E-02*   0.20E-01*   0.73E-02*    0.27E-01   0.11E+03   EDIIS        0.
 
       Fermi aufbau procedure completed!
      nOcc=   12
 
  11  -224.400499853  -440.282485848   149.631288592  -0.46E-03*   0.69E-02*   0.25E-02*    0.13E-01   0.11E+03   EDIIS        0.
  12  -224.400609095  -440.288064233   149.636757735  -0.11E-03*   0.83E-02*   0.30E-02*    0.62E-02   0.11E+03   EDIIS        0.
  13  -224.400642221  -440.278027706   149.626688081  -0.33E-04*   0.19E-02*   0.14E-02*    0.31E-02   0.11E+03   EDIIS        0.
  14  -224.400653705  -440.287028572   149.635677464  -0.11E-04*   0.44E-02*   0.16E-02*    0.53E-03   0.11E+03   EDIIS        0.
  15  -224.400658028  -440.277250875   149.625895443  -0.43E-05*   0.17E-02*   0.46E-03*    0.13E-03   0.11E+03   c2DIIS       0.
  16  -224.400662355  -440.281615264   149.630255505  -0.43E-05*   0.55E-03*   0.32E-03*    0.23E-04   0.11E+03   QNRc2DIIS    0.
  17  -224.400663280  -440.281703655   149.630342972  -0.92E-06*   0.95E-03*   0.23E-03*    0.30E-03   0.11E+03   QNRc2DIIS    0.
  18  -224.400663779  -440.280779908   149.629418726  -0.50E-06*   0.12E-03*   0.10E-03     0.23E-02   0.11E+03   QNRc2DIIS    0.
  19  -224.400663819  -440.281266407   149.629905184  -0.40E-07*   0.22E-04*   0.46E-05     0.41E-03   0.11E+03   QNRc2DIIS    0.
  20  -224.400663819  -440.281260127   149.629898904  -0.45E-09    0.18E-04    0.22E-05     0.66E-03   0.11E+03   QNRc2DIIS    0.
 
       Convergence after 20 Macro Iterations
--
 
 *****************************************************************************************************************************
 *                                                                                                                           *
 *                                             SCF/KS-DFT Program, Final results                                             *
 *                                                                                                                           *
 *                                                                                                                           *
 *                                                                                                                           *
 *                                                       Final Results                                                       *
 *                                                                                                                           *
 *****************************************************************************************************************************
 
::    Total SCF energy                               -224.4006638194
      One-electron energy                            -440.2812601265
      Two-electron energy                             149.6298989039
      Nuclear repulsion energy                         66.2506974033
      Kinetic energy (interpolated)                   225.3160650369
      Virial theorem                                    0.9959372572
      Total spin, S(S+1)                                0.0000000000
      Total spin, S                                     0.0000000000
      Max non-diagonal density matrix element           0.0000317013
      Max non-diagonal Fock matrix element              0.0000070323
 
 
      All orbitals with orbital energies smaller than  E(LUMO)+0.5 are printed
 
++    Molecular orbitals:
      -------------------
 
      Title: SCF orbitals

      Molecular orbitals for symmetry species 1: a  
 
          Orbital            1         2         3         4         5         6         7         8         9        10    
          Energy          -20.8502  -20.7409  -20.7408   -1.6965   -1.4625   -1.0546   -0.8377   -0.7777   -0.7462   -0.6221
          Occ. No.          2.0000    2.0000    2.0000    2.0000    2.0000    2.0000    2.0000    2.0000    2.0000    2.0000
 
        1 O1     1s         0.0026   -0.7062    0.7062   -0.0126    0.0126    0.0150    0.0001   -0.0263    0.0000   -0.0001
        2 O1     2s         0.0005    0.0063   -0.0060    0.3497   -0.5581    0.6588    0.0014   -0.4526    0.0000   -0.0014
        3 O1     3s         0.0002    0.0045   -0.0041   -0.0097    0.0218    0.0243    0.0001   -0.0565    0.0000   -0.0002
        4 O1     4s         0.0000    0.0010   -0.0008   -0.0003    0.0040    0.0043    0.0000   -0.0118    0.0000   -0.0001
        5 O1     2px        0.0000    0.0000   -0.0000    0.0002   -0.0003   -0.0007    0.3482    0.0029    0.0000   -0.7017
        6 O1     3px        0.0000    0.0000   -0.0000   -0.0001    0.0001    0.0001   -0.0263   -0.0002   -0.0000    0.0120
        7 O1     4px        0.0000   -0.0000    0.0000   -0.0000   -0.0000   -0.0000   -0.0002   -0.0000   -0.0000    0.0054
        8 O1     2py       -0.0004   -0.0028    0.0032   -0.1145    0.0869    0.1827    0.0017   -0.4040    0.0000   -0.0027
        9 O1     3py       -0.0001   -0.0027    0.0030    0.0116   -0.0203   -0.0292   -0.0001    0.0485   -0.0000    0.0001
       10 O1     4py        0.0001    0.0018   -0.0017    0.0010   -0.0031    0.0005   -0.0000    0.0041   -0.0000    0.0000
       11 O1     2pz       -0.0000    0.0000    0.0000   -0.0000    0.0000    0.0000   -0.0000   -0.0000    0.4324    0.0000
       12 O1     3pz       -0.0000    0.0000   -0.0000    0.0000   -0.0000   -0.0000    0.0000    0.0000   -0.0145   -0.0000
       13 O1     4pz       -0.0000   -0.0000    0.0000    0.0000    0.0000    0.0000    0.0000    0.0000   -0.0067   -0.0000
       14 O1     3d2-       0.0000   -0.0000    0.0000   -0.0001    0.0001    0.0001   -0.0215   -0.0001   -0.0000    0.0134
       15 O1     4d2-       0.0000   -0.0000    0.0000    0.0000    0.0000    0.0000   -0.0017   -0.0000   -0.0000    0.0007
       16 O1     3d1-      -0.0000   -0.0000    0.0000   -0.0000   -0.0000    0.0000    0.0000   -0.0000   -0.0321   -0.0000
       17 O1     4d1-      -0.0000    0.0000   -0.0000   -0.0000    0.0000    0.0000    0.0000   -0.0000   -0.0057   -0.0000
       18 O1     3d0       -0.0000   -0.0006    0.0007   -0.0101    0.0080    0.0077    0.0001   -0.0156    0.0000   -0.0001
       19 O1     4d0       -0.0000   -0.0004    0.0005   -0.0010    0.0005    0.0005    0.0000   -0.0011    0.0000   -0.0000
       20 O1     3d1+       0.0000    0.0000   -0.0000    0.0000   -0.0000   -0.0000   -0.0000    0.0000    0.0001    0.0000
       21 O1     4d1+       0.0000   -0.0000    0.0000    0.0000   -0.0000   -0.0000    0.0000    0.0000    0.0000   -0.0000
       22 O1     3d2+      -0.0001   -0.0013    0.0015   -0.0205    0.0149    0.0174    0.0002   -0.0298    0.0000   -0.0002
       23 O1     4d2+      -0.0000   -0.0006    0.0007   -0.0029    0.0017    0.0017    0.0000   -0.0021    0.0000   -0.0000
       24 O1     4f3-       0.0001    0.0002   -0.0002    0.0061   -0.0052   -0.0034   -0.0001    0.0071   -0.0000    0.0001
       25 O1     4f2-      -0.0000    0.0000   -0.0000   -0.0000    0.0000    0.0000    0.0000   -0.0000   -0.0000   -0.0000
       26 O1     4f1-       0.0000    0.0002   -0.0002    0.0034   -0.0029   -0.0023   -0.0000    0.0042   -0.0000    0.0000
       27 O1     4f0       -0.0000   -0.0000    0.0000   -0.0000    0.0000    0.0000    0.0000   -0.0000   -0.0037    0.0000
       28 O1     4f1+       0.0000   -0.0000    0.0000   -0.0000    0.0000    0.0000   -0.0006   -0.0000    0.0000   -0.0005
       29 O1     4f2+      -0.0000   -0.0000    0.0000    0.0000   -0.0000    0.0000    0.0000    0.0000   -0.0072   -0.0000
       30 O1     4f3+       0.0000   -0.0000    0.0000   -0.0000    0.0000    0.0000   -0.0075   -0.0001   -0.0000    0.0064
       31 O2     1s         0.9999   -0.0000   -0.0017   -0.0287   -0.0000   -0.0147    0.0000   -0.0000    0.0000   -0.0000
       32 O2     2s        -0.0008    0.0000    0.0126    0.6228    0.0000   -0.6284    0.0004    0.0000    0.0000   -0.0000
       33 O2     3s        -0.0012    0.0000    0.0071   -0.0663   -0.0000   -0.0248    0.0000   -0.0000    0.0000   -0.0000
       34 O2     4s        -0.0001    0.0000    0.0011   -0.0126   -0.0000   -0.0041    0.0000   -0.0000    0.0000   -0.0000
       35 O2     2px       -0.0000   -0.0000   -0.0000   -0.0006    0.0000   -0.0013    0.7398    0.0000    0.0000   -0.0000
       36 O2     3px        0.0000   -0.0000   -0.0000    0.0003   -0.0000    0.0002   -0.0785   -0.0000   -0.0000    0.0000
       37 O2     4px       -0.0000    0.0000    0.0000    0.0001   -0.0000   -0.0000   -0.0108   -0.0000   -0.0000    0.0000
       38 O2     2py       -0.0000   -0.0078    0.0000    0.0000   -0.3383   -0.0000   -0.0000    0.5772    0.0000    0.0022
       39 O2     3py       -0.0000   -0.0054    0.0000    0.0000    0.0636    0.0000    0.0000   -0.0480    0.0000    0.0001
       40 O2     4py        0.0000    0.0014   -0.0000    0.0000    0.0004   -0.0000    0.0000   -0.0130    0.0000   -0.0000
       41 O2     2pz        0.0000    0.0000    0.0000    0.0000   -0.0000    0.0000   -0.0000   -0.0000    0.6156   -0.0000
       42 O2     3pz       -0.0000   -0.0000   -0.0000   -0.0000    0.0000   -0.0000    0.0000    0.0000   -0.0381   -0.0000
       43 O2     4pz        0.0000   -0.0000   -0.0000   -0.0000    0.0000    0.0000    0.0000    0.0000   -0.0194   -0.0000
       44 O2     3d2-       0.0000    0.0000   -0.0000   -0.0000    0.0003   -0.0000   -0.0000   -0.0002   -0.0000   -0.0390
       45 O2     4d2-       0.0000    0.0000   -0.0000   -0.0000    0.0000   -0.0000   -0.0000   -0.0000    0.0000   -0.0059
       46 O2     3d1-       0.0000   -0.0000   -0.0000    0.0000   -0.0000   -0.0000   -0.0000    0.0000   -0.0000    0.0000
       47 O2     4d1-       0.0000   -0.0000   -0.0000    0.0000   -0.0000   -0.0000   -0.0000    0.0000   -0.0000    0.0000
       48 O2     3d0       -0.0002   -0.0000   -0.0012   -0.0146   -0.0000    0.0017    0.0002    0.0000    0.0000   -0.0000
       49 O2     4d0        0.0002   -0.0000   -0.0006    0.0004   -0.0000    0.0012    0.0000    0.0000    0.0000   -0.0000
       50 O2     3d1+      -0.0000   -0.0000    0.0000    0.0000   -0.0000    0.0000    0.0000   -0.0000   -0.0002   -0.0000
       51 O2     4d1+       0.0000   -0.0000    0.0000    0.0000   -0.0000    0.0000    0.0000   -0.0000   -0.0000   -0.0000
       52 O2     3d2+       0.0003   -0.0000   -0.0021   -0.0263   -0.0000   -0.0040   -0.0001    0.0000   -0.0000   -0.0000
       53 O2     4d2+       0.0001   -0.0000   -0.0010   -0.0010   -0.0000    0.0003    0.0000    0.0000   -0.0000   -0.0000
       54 O2     4f3-       0.0000    0.0002   -0.0000   -0.0000    0.0112    0.0000    0.0000   -0.0098   -0.0000    0.0000
       55 O2     4f2-       0.0000   -0.0000   -0.0000   -0.0000   -0.0000    0.0000   -0.0000    0.0000    0.0000   -0.0000
       56 O2     4f1-       0.0000    0.0001   -0.0000   -0.0000    0.0053    0.0000    0.0000   -0.0047   -0.0000   -0.0000
       57 O2     4f0        0.0000   -0.0000   -0.0000   -0.0000   -0.0000    0.0000   -0.0000    0.0000   -0.0051   -0.0000
       58 O2     4f1+      -0.0000    0.0000    0.0000    0.0000    0.0000   -0.0000    0.0008   -0.0000    0.0000   -0.0000
       59 O2     4f2+       0.0000    0.0000   -0.0000   -0.0000   -0.0000   -0.0000    0.0000    0.0000   -0.0122   -0.0000
       60 O2     4f3+      -0.0000    0.0000    0.0000    0.0001    0.0000    0.0000   -0.0129   -0.0000   -0.0000    0.0000
       61 O3     1s         0.0026    0.7062    0.7062   -0.0126   -0.0126    0.0150    0.0001    0.0263    0.0000    0.0001
       62 O3     2s         0.0005   -0.0063   -0.0060    0.3497    0.5581    0.6588    0.0014    0.4526    0.0000    0.0014
       63 O3     3s         0.0002   -0.0045   -0.0041   -0.0097   -0.0218    0.0243    0.0001    0.0565    0.0000    0.0002
       64 O3     4s         0.0000   -0.0010   -0.0008   -0.0003   -0.0040    0.0043    0.0000    0.0118    0.0000    0.0001
       65 O3     2px        0.0000   -0.0000   -0.0000    0.0002    0.0003   -0.0007    0.3482   -0.0029    0.0000    0.7017
       66 O3     3px        0.0000   -0.0000   -0.0000   -0.0001   -0.0001    0.0001   -0.0263    0.0002   -0.0000   -0.0120
       67 O3     4px        0.0000    0.0000    0.0000   -0.0000    0.0000   -0.0000   -0.0002    0.0000   -0.0000   -0.0054
       68 O3     2py        0.0004   -0.0028   -0.0032    0.1145    0.0869   -0.1827   -0.0017   -0.4040   -0.0000   -0.0027
       69 O3     3py        0.0001   -0.0027   -0.0030   -0.0116   -0.0203    0.0292    0.0001    0.0485    0.0000    0.0001
       70 O3     4py       -0.0001    0.0018    0.0017   -0.0010   -0.0031   -0.0005    0.0000    0.0041    0.0000    0.0000
       71 O3     2pz       -0.0000    0.0000    0.0000   -0.0000   -0.0000    0.0000   -0.0000    0.0000    0.4324   -0.0000
       72 O3     3pz       -0.0000   -0.0000   -0.0000    0.0000    0.0000   -0.0000    0.0000   -0.0000   -0.0145    0.0000
       73 O3     4pz       -0.0000    0.0000    0.0000    0.0000   -0.0000    0.0000    0.0000    0.0000   -0.0067    0.0000
       74 O3     3d2-      -0.0000   -0.0000   -0.0000    0.0001    0.0001   -0.0001    0.0215   -0.0001    0.0000    0.0134
       75 O3     4d2-      -0.0000   -0.0000   -0.0000   -0.0000    0.0000   -0.0000    0.0017   -0.0000    0.0000    0.0007
       76 O3     3d1-       0.0000   -0.0000   -0.0000    0.0000   -0.0000   -0.0000   -0.0000   -0.0000    0.0321   -0.0000
       77 O3     4d1-       0.0000   -0.0000    0.0000    0.0000    0.0000   -0.0000   -0.0000   -0.0000    0.0057   -0.0000
       78 O3     3d0       -0.0000    0.0006    0.0007   -0.0101   -0.0080    0.0077    0.0001    0.0156    0.0000    0.0001
       79 O3     4d0       -0.0000    0.0004    0.0005   -0.0010   -0.0005    0.0005    0.0000    0.0011    0.0000    0.0000
       80 O3     3d1+       0.0000   -0.0000   -0.0000    0.0000    0.0000   -0.0000   -0.0000   -0.0000    0.0001   -0.0000
       81 O3     4d1+       0.0000    0.0000    0.0000    0.0000    0.0000   -0.0000    0.0000   -0.0000    0.0000    0.0000
       82 O3     3d2+      -0.0001    0.0013    0.0015   -0.0205   -0.0149    0.0174    0.0002    0.0298    0.0000    0.0002
       83 O3     4d2+      -0.0000    0.0006    0.0007   -0.0029   -0.0017    0.0017    0.0000    0.0021    0.0000    0.0000
       84 O3     4f3-      -0.0001    0.0002    0.0002   -0.0061   -0.0052    0.0034    0.0001    0.0071    0.0000    0.0001
       85 O3     4f2-       0.0000    0.0000    0.0000    0.0000    0.0000   -0.0000   -0.0000   -0.0000    0.0000   -0.0000
       86 O3     4f1-      -0.0000    0.0002    0.0002   -0.0034   -0.0029    0.0023    0.0000    0.0042    0.0000    0.0000
       87 O3     4f0       -0.0000    0.0000    0.0000   -0.0000   -0.0000    0.0000    0.0000    0.0000   -0.0037   -0.0000
       88 O3     4f1+       0.0000    0.0000    0.0000   -0.0000   -0.0000    0.0000   -0.0006    0.0000    0.0000    0.0005
       89 O3     4f2+      -0.0000    0.0000    0.0000    0.0000    0.0000    0.0000    0.0000   -0.0000   -0.0072    0.0000
       90 O3     4f3+       0.0000    0.0000    0.0000   -0.0000   -0.0000    0.0000   -0.0075    0.0001   -0.0000   -0.0064
 
          Orbital           11        12        13        14        15        16        17        18        19        20    
          Energy           -0.5161   -0.4655   -0.0199    0.1184    0.1664    0.2350    0.2356    0.2710    0.3666    0.3674
          Occ. No.          2.0000    2.0000    0.0000    0.0000    0.0000    0.0000    0.0000    0.0000    0.0000    0.0000
 
        1 O1     1s         0.0000    0.0000    0.0000    0.0542   -0.2280    0.0000    0.0007    0.1005    0.0001    0.0000
        2 O1     2s         0.0000    0.0003    0.0000    0.5198   -1.6563    0.0000    0.0045    0.6877    0.0005    0.0000
        3 O1     3s         0.0000   -0.0001   -0.0000    0.1142   -0.9987    0.0000    0.0030    0.5854    0.0001    0.0000
        4 O1     4s         0.0000   -0.0001   -0.0000    0.0040   -0.2279    0.0000    0.0007    0.1491   -0.0000    0.0000
        5 O1     2px       -0.0000    0.6684    0.0000   -0.0007   -0.0022   -0.0000   -0.0609    0.0016   -0.1700   -0.0000
        6 O1     3px       -0.0000    0.0448    0.0000   -0.0002   -0.0025    0.0000    0.4029   -0.0009   -0.8720   -0.0000
        7 O1     4px        0.0000    0.0013    0.0000   -0.0001   -0.0004    0.0000    0.2069   -0.0009   -0.3442   -0.0000
        8 O1     2py       -0.0000   -0.0014   -0.0000   -0.8948    0.6578   -0.0000   -0.0027   -0.5180    0.0013    0.0000
        9 O1     3py       -0.0000    0.0001   -0.0000   -0.3362    0.8157   -0.0000   -0.0039   -1.0634    0.0009    0.0000
       10 O1     4py        0.0000    0.0001    0.0000   -0.0309    0.1029   -0.0000   -0.0004   -0.2396    0.0002    0.0000
       11 O1     2pz       -0.6939   -0.0000    0.6602   -0.0000   -0.0000   -0.1095    0.0000    0.0000    0.0000   -0.1493
       12 O1     3pz       -0.0232   -0.0000    0.1744   -0.0000   -0.0000    0.3828   -0.0000   -0.0000    0.0000   -0.8707
       13 O1     4pz        0.0070   -0.0000    0.0288    0.0000   -0.0000    0.2065   -0.0000   -0.0000    0.0000   -0.3492
       14 O1     3d2-       0.0000    0.0058    0.0000   -0.0002    0.0004    0.0000    0.0043   -0.0002    0.0171    0.0000
       15 O1     4d2-       0.0000    0.0006    0.0000   -0.0001    0.0003   -0.0000   -0.0023   -0.0002    0.0174    0.0000
       16 O1     3d1-       0.0253   -0.0000    0.0159   -0.0000   -0.0000    0.0074   -0.0000    0.0000   -0.0000    0.0132
       17 O1     4d1-       0.0056   -0.0000    0.0022   -0.0000   -0.0000   -0.0011    0.0000    0.0000   -0.0000    0.0161
       18 O1     3d0       -0.0000   -0.0000   -0.0000   -0.0102    0.0522   -0.0000   -0.0003   -0.0586    0.0001    0.0000
       19 O1     4d0       -0.0000   -0.0000   -0.0000   -0.0061    0.0327   -0.0000   -0.0002   -0.0416    0.0001    0.0000
       20 O1     3d1+      -0.0000    0.0000   -0.0000   -0.0000    0.0000   -0.0000    0.0000    0.0000    0.0000   -0.0001
       21 O1     4d1+      -0.0000   -0.0000   -0.0000   -0.0000    0.0000   -0.0000    0.0000    0.0000    0.0000   -0.0001
       22 O1     3d2+      -0.0000   -0.0001   -0.0000   -0.0169    0.0879   -0.0000   -0.0006   -0.1069   -0.0000   -0.0000
       23 O1     4d2+      -0.0000   -0.0000   -0.0000   -0.0096    0.0545   -0.0000   -0.0004   -0.0758    0.0000   -0.0000
       24 O1     4f3-       0.0000    0.0000    0.0000    0.0052   -0.0061    0.0000    0.0000    0.0134    0.0000    0.0000
       25 O1     4f2-       0.0000   -0.0000    0.0000   -0.0000   -0.0000   -0.0000    0.0000    0.0000   -0.0000    0.0000
       26 O1     4f1-       0.0000    0.0000    0.0000    0.0020   -0.0048    0.0000    0.0000    0.0109   -0.0000   -0.0000
       27 O1     4f0        0.0020   -0.0000    0.0015   -0.0000    0.0000   -0.0018    0.0000    0.0000   -0.0000    0.0064
       28 O1     4f1+      -0.0000    0.0015    0.0000   -0.0000    0.0000   -0.0000   -0.0010   -0.0000    0.0029    0.0000
       29 O1     4f2+       0.0060    0.0000   -0.0003   -0.0000    0.0000   -0.0017    0.0000    0.0000   -0.0000    0.0075
       30 O1     4f3+       0.0000   -0.0010   -0.0000   -0.0000    0.0000   -0.0000   -0.0027   -0.0001    0.0097    0.0000
       31 O2     1s        -0.0000   -0.0003   -0.0000   -0.1741   -0.0000   -0.0000   -0.0016   -0.3239    0.0000    0.0000
       32 O2     2s        -0.0000   -0.0035   -0.0000   -1.5130   -0.0000   -0.0000   -0.0106   -2.0548    0.0000    0.0000
       33 O2     3s        -0.0000   -0.0008   -0.0000   -0.6524   -0.0000   -0.0000   -0.0067   -1.2123    0.0000    0.0000
       34 O2     4s        -0.0000   -0.0002   -0.0000   -0.1504   -0.0000   -0.0000   -0.0014   -0.2283    0.0000    0.0000
       35 O2     2px       -0.0000   -0.7499   -0.0000    0.0056    0.0000   -0.0000   -0.0937    0.0018   -0.0000   -0.0000
       36 O2     3px       -0.0000   -0.0480   -0.0000    0.0015    0.0000    0.0000    0.2497    0.0024   -0.0000   -0.0000
       37 O2     4px        0.0000   -0.0031   -0.0000    0.0000    0.0000    0.0000    0.1663   -0.0002   -0.0000   -0.0000
       38 O2     2py       -0.0000    0.0000    0.0000   -0.0000    1.6116    0.0000    0.0000   -0.0000    0.0004    0.0000
       39 O2     3py       -0.0000    0.0000    0.0000   -0.0000    1.6848    0.0000    0.0000   -0.0000   -0.0023   -0.0000
       40 O2     4py        0.0000    0.0000    0.0000   -0.0000    0.1730    0.0000   -0.0000   -0.0000   -0.0012   -0.0000
       41 O2     2pz       -0.0000    0.0000   -0.9275    0.0000    0.0000   -0.0573    0.0000   -0.0000   -0.0000   -0.0000
       42 O2     3pz       -0.0000    0.0000   -0.2220    0.0000   -0.0000    0.2776   -0.0000   -0.0000   -0.0000   -0.0000
       43 O2     4pz        0.0000    0.0000   -0.0218    0.0000   -0.0000    0.1770   -0.0000   -0.0000    0.0000   -0.0000
       44 O2     3d2-      -0.0000    0.0000    0.0000    0.0000   -0.0009    0.0000    0.0000    0.0000    0.1098    0.0000
       45 O2     4d2-      -0.0000    0.0000    0.0000    0.0000   -0.0006    0.0000    0.0000    0.0000    0.0695    0.0000
       46 O2     3d1-      -0.0625    0.0000    0.0000    0.0000    0.0000    0.0000   -0.0000    0.0000   -0.0000    0.1210
       47 O2     4d1-      -0.0146    0.0000    0.0000    0.0000    0.0000    0.0000   -0.0000    0.0000   -0.0000    0.0735
       48 O2     3d0       -0.0000   -0.0002   -0.0000   -0.0229    0.0000    0.0000    0.0006    0.1141   -0.0000   -0.0000
       49 O2     4d0       -0.0000   -0.0000   -0.0000    0.0029    0.0000    0.0000    0.0003    0.0503   -0.0000   -0.0000
       50 O2     3d1+       0.0000   -0.0000    0.0001    0.0000    0.0000    0.0001   -0.0000    0.0000   -0.0000   -0.0000
       51 O2     4d1+       0.0000   -0.0000    0.0000    0.0000    0.0000    0.0000    0.0000    0.0000   -0.0000    0.0000
       52 O2     3d2+      -0.0000   -0.0003   -0.0000   -0.0447    0.0000    0.0000    0.0012    0.1871   -0.0000   -0.0000
       53 O2     4d2+      -0.0000   -0.0001   -0.0000    0.0041    0.0000    0.0000    0.0006    0.0786   -0.0000   -0.0000
       54 O2     4f3-       0.0000   -0.0000   -0.0000    0.0000   -0.0157   -0.0000   -0.0000   -0.0000    0.0000    0.0000
       55 O2     4f2-       0.0001    0.0000   -0.0000   -0.0000    0.0000    0.0000    0.0000   -0.0000    0.0000   -0.0000
       56 O2     4f1-      -0.0000    0.0000   -0.0000    0.0000   -0.0116   -0.0000   -0.0000   -0.0000    0.0001    0.0000
       57 O2     4f0       -0.0000    0.0000   -0.0021   -0.0000    0.0000   -0.0018    0.0000    0.0000   -0.0000    0.0000
       58 O2     4f1+      -0.0000   -0.0028   -0.0000    0.0000    0.0000   -0.0000   -0.0010   -0.0000    0.0000   -0.0000
       59 O2     4f2+       0.0000   -0.0000    0.0027   -0.0000    0.0000   -0.0021    0.0000   -0.0000   -0.0000    0.0000
       60 O2     4f3+      -0.0000    0.0007    0.0000    0.0000   -0.0000   -0.0000   -0.0031   -0.0001    0.0000   -0.0000
       61 O3     1s        -0.0000    0.0000    0.0000    0.0542    0.2280    0.0000    0.0007    0.1005   -0.0001   -0.0000
       62 O3     2s        -0.0000    0.0003    0.0000    0.5198    1.6563    0.0000    0.0045    0.6877   -0.0005   -0.0000
       63 O3     3s        -0.0000   -0.0001   -0.0000    0.1142    0.9987    0.0000    0.0030    0.5854   -0.0001   -0.0000
       64 O3     4s        -0.0000   -0.0001   -0.0000    0.0040    0.2279    0.0000    0.0007    0.1491    0.0000   -0.0000
       65 O3     2px        0.0000    0.6684    0.0000   -0.0007    0.0022   -0.0000   -0.0609    0.0016    0.1700    0.0000
       66 O3     3px        0.0000    0.0448    0.0000   -0.0002    0.0025    0.0000    0.4029   -0.0009    0.8720    0.0000
       67 O3     4px       -0.0000    0.0013    0.0000   -0.0001    0.0004    0.0000    0.2069   -0.0009    0.3442    0.0000
       68 O3     2py       -0.0000    0.0014    0.0000    0.8948    0.6578    0.0000    0.0027    0.5180    0.0013    0.0000
       69 O3     3py       -0.0000   -0.0001    0.0000    0.3362    0.8157    0.0000    0.0039    1.0634    0.0009    0.0000
       70 O3     4py        0.0000   -0.0001   -0.0000    0.0309    0.1029    0.0000    0.0004    0.2396    0.0002    0.0000
       71 O3     2pz        0.6939   -0.0000    0.6602   -0.0000    0.0000   -0.1095    0.0000    0.0000   -0.0000    0.1493
       72 O3     3pz        0.0232   -0.0000    0.1744   -0.0000    0.0000    0.3828   -0.0000   -0.0000   -0.0000    0.8707
       73 O3     4pz       -0.0070   -0.0000    0.0288    0.0000   -0.0000    0.2065   -0.0000   -0.0000   -0.0000    0.3492
       74 O3     3d2-       0.0000   -0.0058   -0.0000    0.0002    0.0004   -0.0000   -0.0043    0.0002    0.0171    0.0000
       75 O3     4d2-       0.0000   -0.0006   -0.0000    0.0001    0.0003    0.0000    0.0023    0.0002    0.0174    0.0000
       76 O3     3d1-       0.0253    0.0000   -0.0159    0.0000    0.0000   -0.0074    0.0000   -0.0000   -0.0000    0.0132
       77 O3     4d1-       0.0056    0.0000   -0.0022    0.0000   -0.0000    0.0011   -0.0000   -0.0000   -0.0000    0.0161
       78 O3     3d0        0.0000   -0.0000   -0.0000   -0.0102   -0.0522   -0.0000   -0.0003   -0.0586   -0.0001   -0.0000
       79 O3     4d0        0.0000   -0.0000   -0.0000   -0.0061   -0.0327   -0.0000   -0.0002   -0.0416   -0.0001   -0.0000
       80 O3     3d1+       0.0000    0.0000   -0.0000   -0.0000   -0.0000   -0.0000    0.0000    0.0000   -0.0000    0.0001
       81 O3     4d1+       0.0000   -0.0000   -0.0000   -0.0000   -0.0000   -0.0000    0.0000    0.0000   -0.0000    0.0001
       82 O3     3d2+       0.0000   -0.0001   -0.0000   -0.0169   -0.0879   -0.0000   -0.0006   -0.1069    0.0000    0.0000
       83 O3     4d2+       0.0000   -0.0000   -0.0000   -0.0096   -0.0545   -0.0000   -0.0004   -0.0758   -0.0000    0.0000
       84 O3     4f3-       0.0000   -0.0000   -0.0000   -0.0052   -0.0061   -0.0000   -0.0000   -0.0134    0.0000    0.0000
       85 O3     4f2-       0.0000    0.0000   -0.0000    0.0000   -0.0000    0.0000   -0.0000   -0.0000   -0.0000    0.0000
       86 O3     4f1-       0.0000   -0.0000   -0.0000   -0.0020   -0.0048   -0.0000   -0.0000   -0.0109   -0.0000   -0.0000
       87 O3     4f0       -0.0020   -0.0000    0.0015   -0.0000   -0.0000   -0.0018    0.0000    0.0000    0.0000   -0.0064
       88 O3     4f1+       0.0000    0.0015    0.0000   -0.0000   -0.0000   -0.0000   -0.0010   -0.0000   -0.0029   -0.0000
       89 O3     4f2+      -0.0060    0.0000   -0.0003   -0.0000   -0.0000   -0.0017    0.0000    0.0000    0.0000   -0.0075
       90 O3     4f3+      -0.0000   -0.0010   -0.0000   -0.0000   -0.0000   -0.0000   -0.0027   -0.0001   -0.0097   -0.0000
 
          Orbital           21    
          Energy            0.4621
          Occ. No.          0.0000
 
        1 O1     1s        -0.0716
        2 O1     2s        -0.4212
        3 O1     3s         0.1398
        4 O1     4s         0.1299
        5 O1     2px       -0.0011
        6 O1     3px       -0.0020
        7 O1     4px       -0.0003
        8 O1     2py        0.0318
        9 O1     3py        0.4489
       10 O1     4py        0.0713
       11 O1     2pz        0.0000
       12 O1     3pz       -0.0000
       13 O1     4pz       -0.0000
       14 O1     3d2-       0.0007
       15 O1     4d2-       0.0004
       16 O1     3d1-       0.0000
       17 O1     4d1-       0.0000
       18 O1     3d0        0.0727
       19 O1     4d0        0.0418
       20 O1     3d1+       0.0000
       21 O1     4d1+       0.0000
       22 O1     3d2+       0.1112
       23 O1     4d2+       0.0619
       24 O1     4f3-      -0.0031
       25 O1     4f2-      -0.0000
       26 O1     4f1-      -0.0036
       27 O1     4f0        0.0000
       28 O1     4f1+       0.0000
       29 O1     4f2+       0.0000
       30 O1     4f3+       0.0000
       31 O2     1s         0.0978
       32 O2     2s         0.6145
       33 O2     3s         0.9960
       34 O2     4s         0.3033
       35 O2     2px        0.0010
       36 O2     3px        0.0023
       37 O2     4px        0.0011
       38 O2     2py       -0.0000
       39 O2     3py       -0.0000
       40 O2     4py       -0.0000
       41 O2     2pz        0.0000
       42 O2     3pz        0.0000
       43 O2     4pz        0.0000
       44 O2     3d2-      -0.0000
       45 O2     4d2-      -0.0000
       46 O2     3d1-       0.0000
       47 O2     4d1-       0.0000
       48 O2     3d0       -0.0373
       49 O2     4d0       -0.0151
       50 O2     3d1+       0.0000
       51 O2     4d1+       0.0000
       52 O2     3d2+      -0.0932
       53 O2     4d2+      -0.0452
       54 O2     4f3-       0.0000
       55 O2     4f2-      -0.0000
       56 O2     4f1-       0.0000
       57 O2     4f0       -0.0000
       58 O2     4f1+       0.0000
       59 O2     4f2+      -0.0000
       60 O2     4f3+       0.0001
       61 O3     1s        -0.0716
       62 O3     2s        -0.4212
       63 O3     3s         0.1398
       64 O3     4s         0.1299
       65 O3     2px       -0.0011
       66 O3     3px       -0.0020
       67 O3     4px       -0.0003
       68 O3     2py       -0.0318
       69 O3     3py       -0.4489
       70 O3     4py       -0.0713
       71 O3     2pz        0.0000
       72 O3     3pz       -0.0000
       73 O3     4pz       -0.0000
       74 O3     3d2-      -0.0007
       75 O3     4d2-      -0.0004
       76 O3     3d1-      -0.0000
       77 O3     4d1-      -0.0000
       78 O3     3d0        0.0727
       79 O3     4d0        0.0418
       80 O3     3d1+       0.0000
       81 O3     4d1+       0.0000
       82 O3     3d2+       0.1112
       83 O3     4d2+       0.0619
       84 O3     4f3-       0.0031
       85 O3     4f2-       0.0000
       86 O3     4f1-       0.0036
       87 O3     4f0        0.0000
       88 O3     4f1+       0.0000
       89 O3     4f2+       0.0000
       90 O3     4f3+       0.0000
--
 
 
++    Molecular charges:
      ------------------
 
      Mulliken charges per centre and basis function type
      ---------------------------------------------------
 
                O1      O2      O3    
      1s       1.9975  1.9997  1.9975
      2s       1.9631  1.5809  1.9631
      2px      2.0131  1.9831  2.0131
      2pz      1.4532  1.0021  1.4532
      2py      0.6978  1.0637  0.6978
      3s      -0.0106 -0.0409 -0.0106
      3px     -0.0177 -0.0497 -0.0177
      3pz     -0.0064 -0.0145 -0.0064
      3py     -0.0039  0.0048 -0.0039
      4s       0.0028 -0.0024  0.0028
      3d2+     0.0217  0.0148  0.0217
      3d1+     0.0000  0.0000  0.0000
      3d0      0.0061  0.0035  0.0061
      3d1-     0.0144  0.0555  0.0144
      3d2-     0.0117  0.0320  0.0117
      4px      0.0009  0.0008  0.0009
      4pz      0.0011  0.0021  0.0011
      4py      0.0017  0.0060  0.0017
      4d2+     0.0016  0.0004  0.0016
      4d1+     0.0000  0.0000  0.0000
      4d0      0.0003 -0.0005  0.0003
      4d1-     0.0023  0.0141  0.0023
      4d2-     0.0011  0.0055  0.0011
      4f3+     0.0026  0.0045  0.0026
      4f2+     0.0020  0.0047  0.0020
      4f1+     0.0002  0.0004  0.0002
      4f0      0.0008  0.0014  0.0008
      4f1-     0.0013  0.0013  0.0013
      4f2-     0.0000  0.0000  0.0000
      4f3-     0.0030  0.0038  0.0030
      Total    8.1615  7.6770  8.1615
 
      N-E     -0.1615  0.3230 -0.1615
 
      Total electronic charge=   24.000000
 
      Total            charge=   -0.000000
--
 
 
  Input file to MOLDEN was generated!
 
 
++    Static properties:
      ------------------
 
 
      LoProp Charges per center
 

                   O1       O2       O3    
      Nuclear      8.0000   8.0000   8.0000
      Electronic  -8.1683  -7.6633  -8.1683
 
      Total       -0.1683   0.3367  -0.1683
--
 
 
++    Natural Bond Order analysis
      ---------------------------
      Based on LoProp computed density
      -------------------------------------------------------------------------------------
      Atom A       Atom B       Bond Order | Atom A       Atom B       Bond Order
        O1           O2             1.995  |   O2           O3             1.995
      -------------------------------------------------------------------------------------
      NBO located     15.999 core electrons.
      NBO located      7.980 electrons involved in    2 bonds.
      The remaining    0.021 electrons are to be considered as diffuse
--
 
 
++    Molecular properties:
      ---------------------
 
      Charge (e):
                      =   -0.0000
      Dipole Moment (Debye):
      Origin of the operator (Ang)=    0.0000    0.0000    0.0000
                   X= -7.2166E-05               Y=  6.9979E-10               Z=  9.3389E-13           Total=  7.2166E-05
      Quadrupole Moment (Debye*Ang):
      Origin of the operator (Ang)=   -0.0019    0.0000    0.0000
                  XX= -1.6052E+01              XY= -3.6707E-12              XZ=  1.0683E-09              YY= -1.6780E+01
                  YZ= -4.6357E-13              ZZ= -1.4871E+01
      In traceless form (Debye*Ang)
                  XX= -2.2638E-01              XY= -5.5060E-12              XZ=  1.6024E-09              YY= -1.3183E+00
                  YZ= -6.9535E-13              ZZ=  1.5447E+00
--
 
 
  Input file to MOLDEN was generated!
 
 ###############################################################################
 ###############################################################################
 ###                                                                         ###
 ###                                                                         ###
 ###    RunFile label nBas                                                   ###
 ###    was used       78 times                                              ###
 ###                                                                         ###
 ###                                                                         ###
 ###############################################################################
 ###############################################################################
--- Stop Module: scf at Fri Jan  3 04:19:32 2025 /rc=_RC_ALL_IS_WELL_ ---
*** files: ozone_180.25.LprOrb ozone_180.25.LoProp.molden ozone_180.25.scf.molden ozone_180.25.ScfOrb ozone_180.25.scf.h5 xmldump
    saved to directory /home/grierjones/DDCASPT2/ozone/ANO-RCC-VTZP/ozone_180.25
--- Module scf spent 1 second ---

>>> COPY /tmp/ozone_180.25/ozone_180.25.scf.h5 /home/grierjones/DDCASPT2/ozone/ANO-RCC-VTZP/ozone_180.25/

*** symbolic link created: INPORB -> ozone_180.25.ScfOrb
--- Start Module: rasscf at Fri Jan  3 04:19:32 2025 ---
 
()()()()()()()()()()()()()()()()()()()()()()()()()()()()()()()()()()()()()()()()()()()()()()()()()()

                                              &RASSCF

                                   only a single process is used
                       available to each process: 2.0 GB of memory, 1 thread?
()()()()()()()()()()()()()()()()()()()()()()()()()()()()()()()()()()()()()()()()()()()()()()()()()()
 
 
 *************** WARNING ****************
 ###############################################################################
 ###############################################################################
 ###                                                                         ###
 ###                                                                         ###
 ###    Too many macro-iterations.                                           ###
 ###                                                                         ###
 ###                                                                         ###
 ###############################################################################
 ###############################################################################
 Too many macro-iterations requested.
 Reset to maximum, new MAXIT=     200
 ****************************************
 
 *************** WARNING ****************
 ###############################################################################
 ###############################################################################
 ###                                                                         ###
 ###                                                                         ###
 ###    Too many SX-iterations.                                              ###
 ###                                                                         ###
 ###                                                                         ###
 ###############################################################################
 ###############################################################################
 Too many SX-iterations requested.
 Reset to maximum, new ITMAX=     100
 ****************************************
 
      Header of the ONEINT file:
      --------------------------
      
      Integrals generated by seward 4.2.0  , Fri Jan  3 04:19:28 2025
 
 
      OrdInt status: non-squared
 
 
      Cartesian coordinates in Angstrom:
      -----------------------------------------------------
      No.  Label        X            Y            Z        
      -----------------------------------------------------
       1   O1        -0.00278800   1.27799700   0.00000000
       2   O2         0.00000000   0.00000000   0.00000000
       3   O3        -0.00278800  -1.27799700   0.00000000
      -----------------------------------------------------
      Nuclear repulsion energy =   66.25069740
 
++    Wave function specifications:
      -----------------------------
 
      Number of closed shell electrons          20
      Number of electrons in active shells       4
      Max number of holes in RAS1 space          0
      Max nr of electrons in RAS3 space          0
      Number of inactive orbitals               10
      Number of active orbitals                  3
      Number of secondary orbitals              77
      Spin quantum number                      0.0
      State symmetry                             1
--
 
++    Orbital specifications:
      -----------------------
 
      Symmetry species                           1
                                                 a
      Frozen orbitals                            0
      Inactive orbitals                         10
      Active orbitals                            3
      RAS1 orbitals                              0
      RAS2 orbitals                              3
      RAS3 orbitals                              0
      Secondary orbitals                        77
      Deleted orbitals                           0
      Number of basis functions                 90
--
 
++    CI expansion specifications:
      ----------------------------
 
      Number of CSFs                             6
      Number of determinants                     6
      Number of root(s) required                 1
      Root chosen for geometry opt.              1
      CI root used                               1
         
      highest root included in the CI            1
      max. size of the explicit Hamiltonian      6
--
 
++    Optimization specifications:
      ----------------------------
 
      RASSCF algorithm: Conventional
      Maximum number of macro iterations       200
      Maximum number of SX iterations          100
      Threshold for RASSCF energy            0.100E-07
      Threshold for max MO rotation          0.100E+00
      Threshold for max BLB element          0.100E-03
      Level shift parameter                  0.500E+00
      Make Quasi-Newton update
--
 
      The MO-coefficients are taken from the file:
      /home/grierjones/DDCASPT2/ozone/ANO-RCC-VTZP/ozone_180.00/ozone_180.00.RasOrb                                                   
      Title: RASSCF average (pseudo-natural) orbitals                                      
 
      Total molecular charge    0.00
 
      ************************************************************************************************************************
      *                                                                                                                      *
      *                                            Wave function control section                                             *
      *                                                                                                                      *
      ************************************************************************************************************************
 
 
                                         RASSCF iterations: Energy and convergence statistics
                                         ----------------------------------------------------
 
      Iter CI   SX   CI       RASSCF       Energy    max ROT     max BLB   max BLB  Level Ln srch  Step   QN   Walltime
          iter iter root      energy       change     param      element    value   shift minimum  type update hh:mm:ss
 Nr of preliminary CI iterations:   1
        1   1    3    1  -224.47008226    0.00E+00   0.74E-03    7  14 1 -0.15E-02*  0.18   0.00    SX    NO    0:00:00
        2   1    3    1  -224.47008974   -0.75E-05* -0.53E-03    7  14 1 -0.95E-03*  0.18   0.00    SX    NO    0:00:00
        3   1    3    1  -224.47009182   -0.21E-05* -0.38E-03   10  14 1  0.57E-03*  0.18   0.00    SX    NO    0:00:00
        4   1    3    1  -224.47009261   -0.79E-06* -0.29E-03   10  14 1  0.43E-03*  0.18   0.00    SX    NO    0:00:00
        5   1    3    1  -224.47009297   -0.36E-06* -0.43E-03   10  14 1  0.34E-03*  0.18   2.50    LS   YES    0:00:00
        6   1    3    1  -224.47009327   -0.30E-06* -0.25E-03   10  14 1  0.19E-03*  0.18   1.58    LS   YES    0:00:00
        7   1    3    1  -224.47009332   -0.47E-07* -0.13E-03    7  14 1  0.17E-03*  0.18   1.00    QN   YES    0:00:00
        8   1    3    1  -224.47009339   -0.71E-07* -0.19E-03    7  14 1  0.13E-03*  0.18   2.50    LS   YES    0:00:00
        9   1    2    1  -224.47009345   -0.62E-07* -0.13E-03    7  14 1  0.70E-04   0.18   1.68    LS   YES    0:00:00
       10   1    2    1  -224.47009346   -0.12E-07* -0.16E-04    9  25 1  0.34E-04   0.18   1.00    QN   YES    0:00:00
       11   1    2    1  -224.47009347   -0.30E-08  -0.10E-04    9  25 1  0.13E-04   0.18   1.60    QN   YES    0:00:00
      Convergence after 11 iterations
 
  Dmat in MO in SXCTL bf call to SXHAM                                                                                    
  mat. size =     3x    3
 
        1.9827320224393812
       -0.0000000000022350      1.7936977154446561
        0.0000190838149987      0.0000000000055656      0.2235702621159632
       12   1    2    1  -224.47009347   -0.54E-09  -0.10E-04    8  25 1  0.23E-05   0.18   1.60    QN   YES    0:00:00
 
      ************************************************************************************************************************
                                                      Wave function printout:
                       occupation of active orbitals, and spin coupling of open shells (u,d: Spin up or down)
      ************************************************************************************************************************
 
      Note: transformation to natural orbitals
      has been made, which may change the order of the CSFs.
 
      printout of CI-coefficients larger than  0.05 for root  1
      energy=    -224.470093
      conf/sym  111     Coeff  Weight
             1  220  -0.94245 0.88821
             3  202   0.32117 0.10315
             6  022   0.09292 0.00863
 
      Natural orbitals and occupation numbers for root  1
      sym 1:   1.982732   1.793698   0.223570
 
      ************************************************************************************************************************
      *                                                                                                                      *
      *                                                    Final results                                                     *
      *                                                                                                                      *
      ************************************************************************************************************************
 
 
++    Wave function specifications:
      -----------------------------
 
      Number of closed shell electrons          20
      Number of electrons in active shells       4
      Max number of holes in RAS1 space          0
      Max nr of electrons in RAS3 space          0
      Number of inactive orbitals               10
      Number of active orbitals                  3
      Number of secondary orbitals              77
      Spin quantum number                      0.0
      State symmetry                             1
--
 
++    Orbital specifications:
      -----------------------
 
      Symmetry species                           1
                                                 a
      Frozen orbitals                            0
      Inactive orbitals                         10
      Active orbitals                            3
      RAS1 orbitals                              0
      RAS2 orbitals                              3
      RAS3 orbitals                              0
      Secondary orbitals                        77
      Deleted orbitals                           0
      Number of basis functions                 90
--
 
++    CI expansion specifications:
      ----------------------------
 
      Number of CSFs                             6
      Number of determinants                     6
      Number of root(s) required                 1
      CI root used                               1
      highest root included in the CI            1
      Root passed to geometry opt.               1
--
 
++    Final optimization conditions:
      ------------------------------
 
      Average CI energy                            -224.47009347
      RASSCF energy for state  1                   -224.47009347
      Super-CI energy                                -0.00000000
      RASSCF energy change                           -0.00000000
      Max change in MO coefficients              -0.171E-04
      Max non-diagonal density matrix element    -0.102E-04
      Maximum BLB matrix element                  0.230E-05
      (orbital pair   8,  25 in symmetry   1)
      Norm of electronic gradient            0.566E-05
--
 
 
      Final state energy(ies):
      ------------------------
 
::    RASSCF root number  1 Total energy:   -224.47009347
 
++    Molecular orbitals:
      -------------------
 
      Pseudonatural active orbitals and approximate occupation numbers
 
 
 
 
      Molecular orbitals for symmetry species 1: a  
 
 
      Orbital                1         2         3         4         5         6         7         8         9        10
      Energy          -20.7635  -20.7448  -20.7447   -1.6653   -1.4478   -1.0448   -0.8039   -0.7645   -0.6254   -0.4445
      Occ. No.          2.0000    2.0000    2.0000    2.0000    2.0000    2.0000    2.0000    2.0000    2.0000    2.0000
 
    1 O1     1s         0.0140   -0.7062    0.7061   -0.0125    0.0115    0.0158    0.0001    0.0254   -0.0001    0.0000
    2 O1     2s         0.0007    0.0063   -0.0061    0.3687   -0.5741    0.6465    0.0011    0.4239   -0.0016    0.0005
    3 O1     3s         0.0003    0.0045   -0.0041   -0.0117    0.0214    0.0245    0.0001    0.0539   -0.0003   -0.0001
    4 O1     4s         0.0000    0.0009   -0.0008   -0.0008    0.0040    0.0042    0.0000    0.0114   -0.0001   -0.0001
    5 O1     2px        0.0000    0.0000   -0.0000    0.0002   -0.0003   -0.0007    0.3988   -0.0033   -0.7028    0.6434
    6 O1     3px        0.0000    0.0000   -0.0000   -0.0001    0.0001    0.0001   -0.0280    0.0002    0.0143    0.0512
    7 O1     4px        0.0000   -0.0000    0.0000   -0.0000   -0.0000    0.0000   -0.0014    0.0000    0.0056    0.0031
    8 O1     2py       -0.0006   -0.0028    0.0032   -0.1150    0.0828    0.2002    0.0018    0.4288   -0.0029   -0.0020
    9 O1     3py       -0.0002   -0.0027    0.0030    0.0124   -0.0196   -0.0299   -0.0001   -0.0465    0.0001    0.0001
   10 O1     4py        0.0001    0.0018   -0.0017    0.0008   -0.0031    0.0001   -0.0000   -0.0051    0.0000    0.0001
   11 O1     2pz        0.0000   -0.0000    0.0000   -0.0000    0.0000   -0.0000   -0.0000   -0.0000    0.0000   -0.0000
   12 O1     3pz       -0.0000   -0.0000   -0.0000    0.0000    0.0000   -0.0000   -0.0000   -0.0000   -0.0000   -0.0000
   13 O1     4pz        0.0000   -0.0000   -0.0000    0.0000   -0.0000    0.0000   -0.0000    0.0000   -0.0000    0.0000
   14 O1     3d2-       0.0000   -0.0000    0.0000   -0.0001    0.0001    0.0001   -0.0214    0.0001    0.0120    0.0104
   15 O1     4d2-       0.0000   -0.0000    0.0000    0.0000    0.0000   -0.0000   -0.0016   -0.0000   -0.0000    0.0019
   16 O1     3d1-       0.0000    0.0000   -0.0000    0.0000    0.0000    0.0000    0.0000    0.0000   -0.0000   -0.0000
   17 O1     4d1-       0.0000    0.0000    0.0000    0.0000    0.0000    0.0000   -0.0000    0.0000   -0.0000   -0.0000
   18 O1     3d0       -0.0001   -0.0006    0.0007   -0.0107    0.0084    0.0079    0.0001    0.0158   -0.0001   -0.0000
   19 O1     4d0       -0.0000   -0.0004    0.0005   -0.0012    0.0008    0.0003    0.0000    0.0010   -0.0000   -0.0000
   20 O1     3d1+       0.0000    0.0000   -0.0000    0.0000    0.0000    0.0000   -0.0000   -0.0000   -0.0000   -0.0000
   21 O1     4d1+      -0.0000   -0.0000    0.0000   -0.0000    0.0000   -0.0000    0.0000   -0.0000   -0.0000    0.0000
   22 O1     3d2+      -0.0002   -0.0013    0.0015   -0.0201    0.0142    0.0182    0.0002    0.0303   -0.0002   -0.0001
   23 O1     4d2+      -0.0001   -0.0006    0.0007   -0.0028    0.0016    0.0018    0.0000    0.0024   -0.0000   -0.0000
   24 O1     4f3-       0.0001    0.0002   -0.0002    0.0060   -0.0050   -0.0035   -0.0000   -0.0070    0.0001    0.0000
   25 O1     4f2-       0.0000   -0.0000    0.0000    0.0000    0.0000   -0.0000   -0.0000   -0.0000    0.0000   -0.0000
   26 O1     4f1-       0.0000    0.0002   -0.0002    0.0034   -0.0029   -0.0020   -0.0000   -0.0038    0.0000    0.0000
   27 O1     4f0        0.0000    0.0000   -0.0000    0.0000    0.0000    0.0000   -0.0000    0.0000   -0.0000   -0.0000
   28 O1     4f1+       0.0000   -0.0000    0.0000   -0.0000    0.0000    0.0000   -0.0003    0.0000   -0.0009    0.0019
   29 O1     4f2+       0.0000    0.0000   -0.0000   -0.0000    0.0000   -0.0000   -0.0000   -0.0000   -0.0000    0.0000
   30 O1     4f3+       0.0000   -0.0000    0.0000   -0.0000    0.0000    0.0000   -0.0075    0.0001    0.0062    0.0000
   31 O2     1s         0.9996    0.0000   -0.0177   -0.0293   -0.0000   -0.0123    0.0001    0.0000   -0.0000   -0.0004
   32 O2     2s        -0.0010   -0.0000    0.0126    0.5999    0.0000   -0.6325    0.0006    0.0000   -0.0000   -0.0044
   33 O2     3s        -0.0016   -0.0000    0.0072   -0.0582   -0.0000   -0.0303    0.0001    0.0000   -0.0000   -0.0011
   34 O2     4s        -0.0000   -0.0000    0.0011   -0.0120   -0.0000   -0.0044    0.0000    0.0000   -0.0000   -0.0003
   35 O2     2px       -0.0000    0.0000   -0.0000   -0.0007   -0.0000   -0.0010    0.6787   -0.0000   -0.0000   -0.8144
   36 O2     3px        0.0000    0.0000   -0.0000    0.0003   -0.0000    0.0001   -0.0644    0.0000   -0.0000   -0.0682
   37 O2     4px       -0.0000   -0.0000    0.0000    0.0001    0.0000   -0.0000   -0.0116    0.0000   -0.0000   -0.0033
   38 O2     2py        0.0000   -0.0079   -0.0000    0.0000   -0.3117   -0.0000   -0.0000   -0.5533    0.0025    0.0000
   39 O2     3py        0.0000   -0.0054   -0.0000    0.0000    0.0605    0.0000    0.0000    0.0434    0.0001    0.0000
   40 O2     4py       -0.0000    0.0014    0.0000    0.0000    0.0010    0.0000    0.0000    0.0128   -0.0000   -0.0000
   41 O2     2pz        0.0000    0.0000    0.0000    0.0000    0.0000   -0.0000   -0.0000    0.0000    0.0000    0.0000
   42 O2     3pz       -0.0000    0.0000    0.0000    0.0000   -0.0000    0.0000    0.0000    0.0000    0.0000   -0.0000
   43 O2     4pz       -0.0000    0.0000    0.0000    0.0000    0.0000   -0.0000    0.0000    0.0000    0.0000   -0.0000
   44 O2     3d2-       0.0000    0.0000    0.0000   -0.0000    0.0003   -0.0000   -0.0000    0.0002   -0.0359   -0.0000
   45 O2     4d2-       0.0000    0.0000    0.0000   -0.0000    0.0000   -0.0000    0.0000    0.0000   -0.0047   -0.0000
   46 O2     3d1-       0.0000    0.0000   -0.0000    0.0000   -0.0000    0.0000    0.0000    0.0000   -0.0000   -0.0000
   47 O2     4d1-       0.0000    0.0000    0.0000    0.0000   -0.0000    0.0000    0.0000    0.0000   -0.0000   -0.0000
   48 O2     3d0       -0.0000    0.0000   -0.0012   -0.0141   -0.0000    0.0023    0.0002   -0.0000   -0.0000   -0.0003
   49 O2     4d0        0.0002    0.0000   -0.0006    0.0003   -0.0000    0.0012    0.0000   -0.0000    0.0000   -0.0000
   50 O2     3d1+       0.0000    0.0000    0.0000   -0.0000    0.0000   -0.0000   -0.0000   -0.0000    0.0000   -0.0000
   51 O2     4d1+      -0.0000    0.0000    0.0000   -0.0000   -0.0000   -0.0000   -0.0000    0.0000    0.0000    0.0000
   52 O2     3d2+       0.0005    0.0000   -0.0021   -0.0269   -0.0000   -0.0003   -0.0001   -0.0000   -0.0000   -0.0003
   53 O2     4d2+       0.0002    0.0000   -0.0011   -0.0012   -0.0000    0.0013   -0.0000   -0.0000    0.0000   -0.0000
   54 O2     4f3-      -0.0000    0.0002    0.0000   -0.0000    0.0109    0.0000   -0.0000    0.0102    0.0000   -0.0000
   55 O2     4f2-      -0.0000    0.0000   -0.0000    0.0000    0.0000    0.0000    0.0000   -0.0000    0.0000    0.0000
   56 O2     4f1-      -0.0000    0.0001    0.0000   -0.0000    0.0060    0.0000   -0.0000    0.0057   -0.0000    0.0000
   57 O2     4f0        0.0000    0.0000    0.0000    0.0000   -0.0000   -0.0000    0.0000    0.0000    0.0000   -0.0000
   58 O2     4f1+      -0.0000   -0.0000    0.0000    0.0000   -0.0000   -0.0000   -0.0005   -0.0000   -0.0000   -0.0018
   59 O2     4f2+      -0.0000   -0.0000    0.0000    0.0000    0.0000   -0.0000    0.0000   -0.0000   -0.0000   -0.0000
   60 O2     4f3+      -0.0000   -0.0000    0.0000    0.0001    0.0000    0.0000   -0.0130   -0.0000    0.0000    0.0024
   61 O3     1s         0.0140    0.7062    0.7061   -0.0125   -0.0115    0.0158    0.0001   -0.0254    0.0001    0.0000
   62 O3     2s         0.0007   -0.0063   -0.0061    0.3687    0.5741    0.6465    0.0011   -0.4239    0.0016    0.0005
   63 O3     3s         0.0003   -0.0045   -0.0041   -0.0117   -0.0214    0.0245    0.0001   -0.0539    0.0003   -0.0001
   64 O3     4s         0.0000   -0.0009   -0.0008   -0.0008   -0.0040    0.0042    0.0000   -0.0114    0.0001   -0.0001
   65 O3     2px        0.0000   -0.0000   -0.0000    0.0002    0.0003   -0.0007    0.3988    0.0033    0.7028    0.6434
   66 O3     3px        0.0000   -0.0000   -0.0000   -0.0001   -0.0001    0.0001   -0.0280   -0.0002   -0.0143    0.0512
   67 O3     4px        0.0000    0.0000    0.0000   -0.0000    0.0000    0.0000   -0.0014   -0.0000   -0.0056    0.0031
   68 O3     2py        0.0006   -0.0028   -0.0032    0.1150    0.0828   -0.2002   -0.0018    0.4288   -0.0029    0.0020
   69 O3     3py        0.0002   -0.0027   -0.0030   -0.0124   -0.0196    0.0299    0.0001   -0.0465    0.0001   -0.0001
   70 O3     4py       -0.0001    0.0018    0.0017   -0.0008   -0.0031   -0.0001    0.0000   -0.0051    0.0000   -0.0001
   71 O3     2pz        0.0000    0.0000    0.0000    0.0000    0.0000   -0.0000   -0.0000   -0.0000   -0.0000   -0.0000
   72 O3     3pz        0.0000    0.0000   -0.0000   -0.0000    0.0000   -0.0000    0.0000   -0.0000   -0.0000   -0.0000
   73 O3     4pz        0.0000   -0.0000   -0.0000   -0.0000   -0.0000   -0.0000   -0.0000   -0.0000   -0.0000    0.0000
   74 O3     3d2-      -0.0000   -0.0000   -0.0000    0.0001    0.0001   -0.0001    0.0214    0.0001    0.0120   -0.0104
   75 O3     4d2-      -0.0000   -0.0000   -0.0000   -0.0000    0.0000    0.0000    0.0016   -0.0000   -0.0000   -0.0019
   76 O3     3d1-       0.0000    0.0000    0.0000    0.0000   -0.0000   -0.0000    0.0000   -0.0000   -0.0000    0.0000
   77 O3     4d1-       0.0000    0.0000   -0.0000    0.0000    0.0000   -0.0000    0.0000   -0.0000   -0.0000    0.0000
   78 O3     3d0       -0.0001    0.0006    0.0007   -0.0107   -0.0084    0.0079    0.0001   -0.0158    0.0001   -0.0000
   79 O3     4d0       -0.0000    0.0004    0.0005   -0.0012   -0.0008    0.0003    0.0000   -0.0010    0.0000   -0.0000
   80 O3     3d1+      -0.0000   -0.0000   -0.0000   -0.0000    0.0000    0.0000   -0.0000   -0.0000   -0.0000    0.0000
   81 O3     4d1+      -0.0000   -0.0000   -0.0000    0.0000   -0.0000   -0.0000    0.0000   -0.0000   -0.0000   -0.0000
   82 O3     3d2+      -0.0002    0.0013    0.0015   -0.0201   -0.0142    0.0182    0.0002   -0.0303    0.0002   -0.0001
   83 O3     4d2+      -0.0001    0.0006    0.0007   -0.0028   -0.0016    0.0018    0.0000   -0.0024    0.0000   -0.0000
   84 O3     4f3-      -0.0001    0.0002    0.0002   -0.0060   -0.0050    0.0035    0.0000   -0.0070    0.0001   -0.0000
   85 O3     4f2-      -0.0000    0.0000    0.0000   -0.0000    0.0000   -0.0000    0.0000   -0.0000    0.0000   -0.0000
   86 O3     4f1-      -0.0000    0.0002    0.0002   -0.0034   -0.0029    0.0020    0.0000   -0.0038    0.0000   -0.0000
   87 O3     4f0       -0.0000   -0.0000   -0.0000    0.0000    0.0000   -0.0000   -0.0000    0.0000   -0.0000   -0.0000
   88 O3     4f1+       0.0000    0.0000    0.0000   -0.0000   -0.0000    0.0000   -0.0003   -0.0000    0.0009    0.0019
   89 O3     4f2+      -0.0000   -0.0000    0.0000   -0.0000    0.0000   -0.0000    0.0000   -0.0000    0.0000    0.0000
   90 O3     4f3+       0.0000    0.0000    0.0000   -0.0000   -0.0000    0.0000   -0.0075   -0.0001   -0.0062    0.0000
 
 
      Orbital               11        12        13        14        15        16        17        18        19        20
      Energy            0.0000    0.0000    0.0000    0.1213    0.1658    0.2283    0.2393    0.2733    0.3657    0.3662
      Occ. No.          1.9827    1.7937    0.2236    0.0000    0.0000    0.0000    0.0000    0.0000    0.0000    0.0000
 
    1 O1     1s        -0.0000    0.0000   -0.0000   -0.0566   -0.2272   -0.0000    0.0006    0.1041   -0.0000    0.0001
    2 O1     2s        -0.0000   -0.0000   -0.0000   -0.5393   -1.6493   -0.0000    0.0039    0.7116   -0.0000    0.0003
    3 O1     3s        -0.0000   -0.0000   -0.0000   -0.1157   -0.9965   -0.0000    0.0025    0.5906   -0.0000   -0.0000
    4 O1     4s         0.0000    0.0000   -0.0000   -0.0035   -0.2275    0.0000    0.0005    0.1475   -0.0000   -0.0000
    5 O1     2px       -0.0000   -0.0000    0.0000    0.0011   -0.0021    0.0000   -0.0418    0.0017   -0.0000   -0.1713
    6 O1     3px        0.0000   -0.0000    0.0000    0.0003   -0.0025    0.0000    0.4270   -0.0003   -0.0000   -0.8719
    7 O1     4px        0.0000   -0.0000    0.0000    0.0001   -0.0004    0.0000    0.2137   -0.0006   -0.0000   -0.3437
    8 O1     2py        0.0000    0.0000    0.0000    0.8932    0.6499    0.0000   -0.0022   -0.5294    0.0000    0.0010
    9 O1     3py        0.0000    0.0000   -0.0000    0.3369    0.8187   -0.0000   -0.0030   -1.0840    0.0000    0.0006
   10 O1     4py       -0.0000    0.0000    0.0000    0.0302    0.1047   -0.0000   -0.0002   -0.2413    0.0000    0.0001
   11 O1     2pz       -0.3494   -0.6972    0.6432    0.0000    0.0000    0.0467   -0.0000   -0.0000   -0.1653    0.0000
   12 O1     3pz        0.0211    0.0002   -0.0785    0.0000   -0.0000    0.4497   -0.0000   -0.0000   -0.8711    0.0000
   13 O1     4pz        0.0056    0.0076    0.0060    0.0000   -0.0000    0.2180   -0.0000   -0.0000   -0.3486    0.0000
   14 O1     3d2-      -0.0000   -0.0000   -0.0000    0.0003    0.0004    0.0000    0.0034   -0.0003    0.0000    0.0168
   15 O1     4d2-      -0.0000    0.0000    0.0000    0.0001    0.0003    0.0000   -0.0031   -0.0002    0.0000    0.0170
   16 O1     3d1-       0.0308    0.0198    0.0157    0.0000   -0.0000    0.0078   -0.0000    0.0000    0.0144   -0.0000
   17 O1     4d1-       0.0051    0.0033    0.0057    0.0000   -0.0000   -0.0020   -0.0000    0.0000    0.0161   -0.0000
   18 O1     3d0        0.0000    0.0000    0.0000    0.0100    0.0523   -0.0000   -0.0003   -0.0613    0.0000    0.0001
   19 O1     4d0       -0.0000    0.0000    0.0000    0.0063    0.0329   -0.0000   -0.0002   -0.0429    0.0000    0.0001
   20 O1     3d1+      -0.0000   -0.0000   -0.0000   -0.0000    0.0000   -0.0000    0.0000    0.0000   -0.0001   -0.0000
   21 O1     4d1+      -0.0000    0.0000   -0.0000    0.0000    0.0000   -0.0000    0.0000    0.0000   -0.0001   -0.0000
   22 O1     3d2+      -0.0000    0.0000   -0.0000    0.0155    0.0883   -0.0000   -0.0006   -0.1110   -0.0000   -0.0000
   23 O1     4d2+      -0.0000    0.0000    0.0000    0.0092    0.0548   -0.0000   -0.0003   -0.0779    0.0000    0.0000
   24 O1     4f3-       0.0000   -0.0000    0.0000   -0.0050   -0.0061    0.0000    0.0000    0.0138   -0.0000    0.0000
   25 O1     4f2-       0.0000    0.0000    0.0000    0.0000    0.0000   -0.0000    0.0000   -0.0000    0.0001   -0.0000
   26 O1     4f1-      -0.0000   -0.0000   -0.0000   -0.0017   -0.0049    0.0000    0.0000    0.0113   -0.0000   -0.0000
   27 O1     4f0        0.0034    0.0003    0.0117   -0.0000   -0.0000   -0.0020    0.0000    0.0000    0.0068   -0.0000
[...]
 
 
      Cartesian coordinates in Angstrom:
      -----------------------------------------------------
      No.  Label        X            Y            Z        
      -----------------------------------------------------
       1   O1        -0.00278800   1.27799700   0.00000000
       2   O2         0.00000000   0.00000000   0.00000000
       3   O3        -0.00278800  -1.27799700   0.00000000
      -----------------------------------------------------
      Nuclear repulsion energy =   66.25069740
 
      Orbital specifications:
      -----------------------
 
      Symmetry species:              1
      Number of basis functions:    90
      Frozen orbitals:               0
      Deleted orbitals:              0
      Number of orbitals used:      90

       SYMMETRY  BASIS FUNCTIONS       ORBITALS      INTEGRALS   CPU(SEC)  I/O(SEC)
 
        1 1 1 1   90  90  90  90    90  90  90  90     8386560       0.00      0.00

       TOTAL CPU TIME(SEC)    4.46TOTAL I/O TIME(SEC)   11.01
 
--- Stop Module: motra at Fri Jan  3 04:19:44 2025 /rc=_RC_ALL_IS_WELL_ ---
*** files: xmldump
    saved to directory /home/grierjones/DDCASPT2/ozone/ANO-RCC-VTZP/ozone_180.25
--- Module motra spent 11 seconds ---

>>> COPY /tmp/ozone_180.25/GMJ_one_int_indx.csv /home/grierjones/DDCASPT2/ozone/ANO-RCC-VTZP/ozone_180.25/ozone_180.25.GMJ_one_int_indx.csv

>>> COPY /tmp/ozone_180.25/GMJ_one_int.csv /home/grierjones/DDCASPT2/ozone/ANO-RCC-VTZP/ozone_180.25/ozone_180.25.GMJ_one_int.csv

>>> COPY /tmp/ozone_180.25/GMJ_two_int_indx.csv /home/grierjones/DDCASPT2/ozone/ANO-RCC-VTZP/ozone_180.25/ozone_180.25.GMJ_two_int_indx.csv

>>> COPY /tmp/ozone_180.25/GMJ_two_int.csv /home/grierjones/DDCASPT2/ozone/ANO-RCC-VTZP/ozone_180.25/ozone_180.25.GMJ_two_int.csv

*** symbolic link created: INPORB -> ozone_180.25.RasOrb
--- Start Module: caspt2 at Fri Jan  3 04:19:44 2025 ---
 
()()()()()()()()()()()()()()()()()()()()()()()()()()()()()()()()()()()()()()()()()()()()()()()()()()

                                              &CASPT2

                                   only a single process is used
                       available to each process: 2.0 GB of memory, 1 thread?
()()()()()()()()()()()()()()()()()()()()()()()()()()()()()()()()()()()()()()()()()()()()()()()()()()
 
 Cholesky algorithm in CASPT2 =    1
 
 ###############################################################################
 ###############################################################################
 ###                                                                         ###
 ###                                                                         ###
 ###    User changed nr of frozen orbitals.                                  ###
 ###                                                                         ###
 ###                                                                         ###
 ###############################################################################
 ###############################################################################
 
++    Wave function specifications:
      -----------------------------
 
      Number of closed shell electrons          20
      Number of electrons in active shells       4
      Max number of holes in RAS1 space          0
      Max number of electrons in RAS3 space      0
      Number of inactive orbitals               10
      Number of active orbitals                  3
      Number of secondary orbitals              77
      Spin quantum number                      0.0
      State symmetry                             1
      Number of CSFs                             6
      Number of root(s) available                1
      Root passed to geometry opt.               1
      A file JOBMIX will be created.
      This is a CASSCF or RASSCF reference function
--
 
++    Orbital specifications:
      -----------------------
 
      Symmetry species                           1
                                                 a
      Frozen orbitals                            0
      Inactive orbitals                         10
      Active orbitals                            3
      Secondary orbitals                        77
      Deleted orbitals                           0
      Number of basis functions                 90
--
 
      Type of Fock operator: STANDARD
      Type of 0-order Hamiltonian: STANDARD WITH DEFAULT IPEA
        "IP-EA" denominator shift =      0.25
      The input orbitals and the CI vector will be transformed.
 
--------------------------------------------------------------------------------
 Estimated memory requirements:
  POLY3 :                   250202
  RHS:                      446386
  SIGMA :                   610360
  PRPCTL:                        0
 Available workspace:    230385072
 
++ CASPT2 computation for group   1
 
********************************************************************************
 Multi-State initialization phase begins for group   1
--------------------------------------------------------------------------------
********************************************************************************
 Compute H0 matrices for state    1
--------------------------------------------------------------------------------
--------------------------------------------------------------------------------
 H0 matrices have been computed.
 
********************************************************************************
  CASPT2 EQUATION SOLUTION
--------------------------------------------------------------------------------
 
  Total nr of CASPT2 parameters:
   Before reduction:      541275
   After  reduction:      532232
 
 The contributions to the second order correlation energy in atomic units.
-----------------------------------------------------------------------------------------------------------------------------
  IT.      VJTU        VJTI        ATVX        AIVX        VJAI        BVAT        BJAT        BJAI        TOTAL       RNORM  
-----------------------------------------------------------------------------------------------------------------------------
   1    -0.000000   -0.001603   -0.016228   -0.103585   -0.018453   -0.023638   -0.168309   -0.353938   -0.685753    0.003247
   2    -0.000000   -0.001631   -0.016308   -0.104077   -0.018484   -0.023645   -0.168343   -0.353944   -0.686433    0.000304
   3    -0.000000   -0.001631   -0.016309   -0.104085   -0.018484   -0.023646   -0.168345   -0.353944   -0.686443    0.000040
   4    -0.000000   -0.001631   -0.016309   -0.104082   -0.018484   -0.023646   -0.168344   -0.353944   -0.686439    0.000007
-------------------------------------------------------------------------------------------------------------------
 
  FINAL CASPT2 RESULT:
 
  Correlation energy /Case, /Symm, and sums:
 VJTU     -0.00000000 -0.00000000
 VJTIP    -0.00163133 -0.00163133
 VJTIM     0.00000000  0.00000000
 ATVX     -0.01630889 -0.01630889
 AIVX     -0.10408149 -0.10408149
 VJAIP    -0.01295300 -0.01295300
 VJAIM    -0.00553102 -0.00553102
 BVATP    -0.02238155 -0.02238155
 BVATM    -0.00126398 -0.00126398
 BJATP    -0.07020945 -0.07020945
 BJATM    -0.09813469 -0.09813469
 BJAIP    -0.24433347 -0.24433347
 BJAIM    -0.10961023 -0.10961023
 Summed:  -0.68643910 -0.68643910
 
      Reference energy:        -224.4700934668
      E2 (Non-variational):      -0.6864390983
      E2 (Variational):          -0.6864391598
      Total energy:            -225.1565326266
      Residual norm:              0.0000006752
      Reference weight:           0.85164
 
      Contributions to the CASPT2 correlation energy
      Active & Virtual Only:         -0.0399544160
      One Inactive Excited:          -0.2724256313
      Two Inactive Excited:          -0.3740590511
 
 
++ Denominators, etc.
----------------------------------------------------------------------------------------------------
 Report on small energy denominators, large coefficients, and large energy contributions.
CASE  SYMM ACTIVE-MIX  NON-ACTIVE INDICES          DENOMINATOR     RHS VALUE       COEFFICIENT     CONTRIBUTION
ATVX     1  Mu1.0006  Se1.016                       1.67346073     -0.04126388      0.02550493     -0.00105243
ATVX     1  Mu1.0005  Se1.019                       1.57004801     -0.06792427      0.04223288     -0.00286864
ATVX     1  Mu1.0005  Se1.032                       2.39366723     -0.07657907      0.03195581     -0.00244715
ATVX     1  Mu1.0005  Se1.043                       3.13157192      0.10906142     -0.03402380     -0.00371068
AIVX     1  Mu1.0005  In1.004 Se1.014               2.59342267     -0.08238340      0.03186848     -0.00262543
AIVX     1  Mu1.0002  In1.005 Se1.014               1.97894306     -0.05290777      0.02588384     -0.00136946
AIVX     1  Mu1.0003  In1.005 Se1.014               2.08110245     -0.06618002      0.03116046     -0.00206220
AIVX     1  Mu1.0004  In1.006 Se1.014               1.82035194     -0.06097690      0.03399210     -0.00207273
AIVX     1  Mu1.0005  In1.006 Se1.014               1.97294268      0.05884693     -0.03056741     -0.00179880
AIVX     1  Mu1.0002  In1.008 Se1.014               1.29565065     -0.11696438      0.08917672     -0.01043050
AIVX     1  Mu1.0003  In1.008 Se1.014               1.39781003     -0.06574929      0.04670781     -0.00307101
AIVX     1  Mu1.0002  In1.009 Se1.017               1.27447587     -0.03956885      0.03002481     -0.00118805
AIVX     1  Mu1.0002  In1.008 Se1.018               1.44766356     -0.04278420      0.02880285     -0.00123231
AIVX     1  Mu1.0002  In1.010 Se1.020               1.22048724     -0.03523892      0.02775954     -0.00097822
AIVX     1  Mu1.0004  In1.006 Se1.021               2.16812779      0.06446334     -0.02985151     -0.00192433
AIVX     1  Mu1.0002  In1.008 Se1.021               1.64342649      0.06327154     -0.03769409     -0.00238496
AIVX     1  Mu1.0004  In1.008 Se1.022               1.92580472      0.07780292     -0.04104646     -0.00319353
AIVX     1  Mu1.0004  In1.008 Se1.025               2.14931021     -0.10114799      0.04746837     -0.00480133
AIVX     1  Mu1.0005  In1.008 Se1.025               2.30190094      0.06746083     -0.02960157     -0.00199695
AIVX     1  Mu1.0002  In1.010 Se1.033               2.04969958      0.06330029     -0.03070295     -0.00194351
BJAIP    1  Se1.014 In1.008 Se1.014 In1.008         1.77161158      0.08061248     -0.04550234     -0.00366806
BJAIP    1  Se1.014 In1.008 Se1.021 In1.008         2.11938743     -0.06159575      0.02906300     -0.00179016
BJAIP    1  Se1.022 In1.008 Se1.025 In1.008         2.76657313     -0.07530107      0.02721817     -0.00204956
BJAIM    1  Se1.014 In1.006 Se1.024 In1.008         2.66112036      0.06764188     -0.02541857     -0.00171936
BJAIM    1  Se1.014 In1.008 Se1.032 In1.010         2.52566052     -0.08012347      0.03172377     -0.00254182
--
 
   (Skipping property calculation,
    use PROP keyword to activate)
--
 
  Total CASPT2 energies:
::    CASPT2 Root  1     Total energy:   -225.15653263
 
  A NEW JOBIPH FILE NAMED 'JOBMIX' IS PREPARED.
********************************************************************************
--- Stop Module: caspt2 at Fri Jan  3 04:19:45 2025 /rc=_RC_ALL_IS_WELL_ ---
*** files: xmldump
    saved to directory /home/grierjones/DDCASPT2/ozone/ANO-RCC-VTZP/ozone_180.25
--- Module caspt2 spent 1 second ---

>>> EXPORT i = B

>>> EXPORT j = P

>>> IF (-FILE GMJ_e2_${i}_${j}.csv)

>>> COPY /tmp/ozone_180.25/GMJ_RHS_B_P.csv /home/grierjones/DDCASPT2/ozone/ANO-RCC-VTZP/ozone_180.25/GMJ_RHS_B_P.csv

>>> COPY /tmp/ozone_180.25/GMJ_IVECW_B_P.csv /home/grierjones/DDCASPT2/ozone/ANO-RCC-VTZP/ozone_180.25/GMJ_IVECW_B_P.csv

>>> COPY /tmp/ozone_180.25/GMJ_IVECX_B_P.csv /home/grierjones/DDCASPT2/ozone/ANO-RCC-VTZP/ozone_180.25/GMJ_IVECX_B_P.csv

>>> COPY /tmp/ozone_180.25/GMJ_IVECC2_B_P.csv /home/grierjones/DDCASPT2/ozone/ANO-RCC-VTZP/ozone_180.25/GMJ_IVECC2_B_P.csv

>>> COPY /tmp/ozone_180.25/GMJ_e2_B_P.csv /home/grierjones/DDCASPT2/ozone/ANO-RCC-VTZP/ozone_180.25/GMJ_e2_B_P.csv

>>> END FOREACH

>>> EXPORT j = M

>>> IF (-FILE GMJ_e2_${i}_${j}.csv)
(Skipped)

>>> END FOREACH

>>> END FOREACH

>>> EXPORT i = E

>>> EXPORT j = P

>>> IF (-FILE GMJ_e2_${i}_${j}.csv)

>>> COPY /tmp/ozone_180.25/GMJ_RHS_E_P.csv /home/grierjones/DDCASPT2/ozone/ANO-RCC-VTZP/ozone_180.25/GMJ_RHS_E_P.csv

>>> COPY /tmp/ozone_180.25/GMJ_IVECW_E_P.csv /home/grierjones/DDCASPT2/ozone/ANO-RCC-VTZP/ozone_180.25/GMJ_IVECW_E_P.csv

>>> COPY /tmp/ozone_180.25/GMJ_IVECX_E_P.csv /home/grierjones/DDCASPT2/ozone/ANO-RCC-VTZP/ozone_180.25/GMJ_IVECX_E_P.csv

>>> COPY /tmp/ozone_180.25/GMJ_IVECC2_E_P.csv /home/grierjones/DDCASPT2/ozone/ANO-RCC-VTZP/ozone_180.25/GMJ_IVECC2_E_P.csv

>>> COPY /tmp/ozone_180.25/GMJ_e2_E_P.csv /home/grierjones/DDCASPT2/ozone/ANO-RCC-VTZP/ozone_180.25/GMJ_e2_E_P.csv

>>> END FOREACH

>>> EXPORT j = M

>>> IF (-FILE GMJ_e2_${i}_${j}.csv)

>>> COPY /tmp/ozone_180.25/GMJ_RHS_E_M.csv /home/grierjones/DDCASPT2/ozone/ANO-RCC-VTZP/ozone_180.25/GMJ_RHS_E_M.csv

>>> COPY /tmp/ozone_180.25/GMJ_IVECW_E_M.csv /home/grierjones/DDCASPT2/ozone/ANO-RCC-VTZP/ozone_180.25/GMJ_IVECW_E_M.csv

>>> COPY /tmp/ozone_180.25/GMJ_IVECX_E_M.csv /home/grierjones/DDCASPT2/ozone/ANO-RCC-VTZP/ozone_180.25/GMJ_IVECX_E_M.csv

>>> COPY /tmp/ozone_180.25/GMJ_IVECC2_E_M.csv /home/grierjones/DDCASPT2/ozone/ANO-RCC-VTZP/ozone_180.25/GMJ_IVECC2_E_M.csv

>>> COPY /tmp/ozone_180.25/GMJ_e2_E_M.csv /home/grierjones/DDCASPT2/ozone/ANO-RCC-VTZP/ozone_180.25/GMJ_e2_E_M.csv

>>> END FOREACH

>>> END FOREACH

>>> EXPORT i = F

>>> EXPORT j = P

>>> IF (-FILE GMJ_e2_${i}_${j}.csv)

>>> COPY /tmp/ozone_180.25/GMJ_RHS_F_P.csv /home/grierjones/DDCASPT2/ozone/ANO-RCC-VTZP/ozone_180.25/GMJ_RHS_F_P.csv

>>> COPY /tmp/ozone_180.25/GMJ_IVECW_F_P.csv /home/grierjones/DDCASPT2/ozone/ANO-RCC-VTZP/ozone_180.25/GMJ_IVECW_F_P.csv

>>> COPY /tmp/ozone_180.25/GMJ_IVECX_F_P.csv /home/grierjones/DDCASPT2/ozone/ANO-RCC-VTZP/ozone_180.25/GMJ_IVECX_F_P.csv

>>> COPY /tmp/ozone_180.25/GMJ_IVECC2_F_P.csv /home/grierjones/DDCASPT2/ozone/ANO-RCC-VTZP/ozone_180.25/GMJ_IVECC2_F_P.csv

>>> COPY /tmp/ozone_180.25/GMJ_e2_F_P.csv /home/grierjones/DDCASPT2/ozone/ANO-RCC-VTZP/ozone_180.25/GMJ_e2_F_P.csv

>>> END FOREACH

>>> EXPORT j = M

>>> IF (-FILE GMJ_e2_${i}_${j}.csv)

>>> COPY /tmp/ozone_180.25/GMJ_RHS_F_M.csv /home/grierjones/DDCASPT2/ozone/ANO-RCC-VTZP/ozone_180.25/GMJ_RHS_F_M.csv

>>> COPY /tmp/ozone_180.25/GMJ_IVECW_F_M.csv /home/grierjones/DDCASPT2/ozone/ANO-RCC-VTZP/ozone_180.25/GMJ_IVECW_F_M.csv

>>> COPY /tmp/ozone_180.25/GMJ_IVECX_F_M.csv /home/grierjones/DDCASPT2/ozone/ANO-RCC-VTZP/ozone_180.25/GMJ_IVECX_F_M.csv

>>> COPY /tmp/ozone_180.25/GMJ_IVECC2_F_M.csv /home/grierjones/DDCASPT2/ozone/ANO-RCC-VTZP/ozone_180.25/GMJ_IVECC2_F_M.csv

>>> COPY /tmp/ozone_180.25/GMJ_e2_F_M.csv /home/grierjones/DDCASPT2/ozone/ANO-RCC-VTZP/ozone_180.25/GMJ_e2_F_M.csv

>>> END FOREACH

>>> END FOREACH

>>> EXPORT i = G

>>> EXPORT j = P

>>> IF (-FILE GMJ_e2_${i}_${j}.csv)

>>> COPY /tmp/ozone_180.25/GMJ_RHS_G_P.csv /home/grierjones/DDCASPT2/ozone/ANO-RCC-VTZP/ozone_180.25/GMJ_RHS_G_P.csv

>>> COPY /tmp/ozone_180.25/GMJ_IVECW_G_P.csv /home/grierjones/DDCASPT2/ozone/ANO-RCC-VTZP/ozone_180.25/GMJ_IVECW_G_P.csv

>>> COPY /tmp/ozone_180.25/GMJ_IVECX_G_P.csv /home/grierjones/DDCASPT2/ozone/ANO-RCC-VTZP/ozone_180.25/GMJ_IVECX_G_P.csv

>>> COPY /tmp/ozone_180.25/GMJ_IVECC2_G_P.csv /home/grierjones/DDCASPT2/ozone/ANO-RCC-VTZP/ozone_180.25/GMJ_IVECC2_G_P.csv

>>> COPY /tmp/ozone_180.25/GMJ_e2_G_P.csv /home/grierjones/DDCASPT2/ozone/ANO-RCC-VTZP/ozone_180.25/GMJ_e2_G_P.csv

>>> END FOREACH

>>> EXPORT j = M

>>> IF (-FILE GMJ_e2_${i}_${j}.csv)

>>> COPY /tmp/ozone_180.25/GMJ_RHS_G_M.csv /home/grierjones/DDCASPT2/ozone/ANO-RCC-VTZP/ozone_180.25/GMJ_RHS_G_M.csv

>>> COPY /tmp/ozone_180.25/GMJ_IVECW_G_M.csv /home/grierjones/DDCASPT2/ozone/ANO-RCC-VTZP/ozone_180.25/GMJ_IVECW_G_M.csv

>>> COPY /tmp/ozone_180.25/GMJ_IVECX_G_M.csv /home/grierjones/DDCASPT2/ozone/ANO-RCC-VTZP/ozone_180.25/GMJ_IVECX_G_M.csv

>>> COPY /tmp/ozone_180.25/GMJ_IVECC2_G_M.csv /home/grierjones/DDCASPT2/ozone/ANO-RCC-VTZP/ozone_180.25/GMJ_IVECC2_G_M.csv

>>> COPY /tmp/ozone_180.25/GMJ_e2_G_M.csv /home/grierjones/DDCASPT2/ozone/ANO-RCC-VTZP/ozone_180.25/GMJ_e2_G_M.csv

>>> END FOREACH

>>> END FOREACH

>>> EXPORT i = H

>>> EXPORT j = P

>>> IF (-FILE GMJ_e2_${i}_${j}.csv)

>>> COPY /tmp/ozone_180.25/GMJ_RHS_H_P.csv /home/grierjones/DDCASPT2/ozone/ANO-RCC-VTZP/ozone_180.25/GMJ_RHS_H_P.csv

>>> COPY /tmp/ozone_180.25/GMJ_IVECW_H_P.csv /home/grierjones/DDCASPT2/ozone/ANO-RCC-VTZP/ozone_180.25/GMJ_IVECW_H_P.csv

>>> COPY /tmp/ozone_180.25/GMJ_IVECX_H_P.csv /home/grierjones/DDCASPT2/ozone/ANO-RCC-VTZP/ozone_180.25/GMJ_IVECX_H_P.csv

>>> COPY /tmp/ozone_180.25/GMJ_IVECC2_H_P.csv /home/grierjones/DDCASPT2/ozone/ANO-RCC-VTZP/ozone_180.25/GMJ_IVECC2_H_P.csv

>>> COPY /tmp/ozone_180.25/GMJ_e2_H_P.csv /home/grierjones/DDCASPT2/ozone/ANO-RCC-VTZP/ozone_180.25/GMJ_e2_H_P.csv

>>> END FOREACH

>>> EXPORT j = M

>>> IF (-FILE GMJ_e2_${i}_${j}.csv)

>>> COPY /tmp/ozone_180.25/GMJ_RHS_H_M.csv /home/grierjones/DDCASPT2/ozone/ANO-RCC-VTZP/ozone_180.25/GMJ_RHS_H_M.csv

>>> COPY /tmp/ozone_180.25/GMJ_IVECW_H_M.csv /home/grierjones/DDCASPT2/ozone/ANO-RCC-VTZP/ozone_180.25/GMJ_IVECW_H_M.csv

>>> COPY /tmp/ozone_180.25/GMJ_IVECX_H_M.csv /home/grierjones/DDCASPT2/ozone/ANO-RCC-VTZP/ozone_180.25/GMJ_IVECX_H_M.csv

>>> COPY /tmp/ozone_180.25/GMJ_IVECC2_H_M.csv /home/grierjones/DDCASPT2/ozone/ANO-RCC-VTZP/ozone_180.25/GMJ_IVECC2_H_M.csv

>>> COPY /tmp/ozone_180.25/GMJ_e2_H_M.csv /home/grierjones/DDCASPT2/ozone/ANO-RCC-VTZP/ozone_180.25/GMJ_e2_H_M.csv

>>> END FOREACH

>>> END FOREACH

>>> EXPORT i = A

>>> IF (-FILE GMJ_e2_$i.csv)

>>> COPY /tmp/ozone_180.25/GMJ_RHS_A.csv /home/grierjones/DDCASPT2/ozone/ANO-RCC-VTZP/ozone_180.25/GMJ_RHS_A.csv

>>> COPY /tmp/ozone_180.25/GMJ_IVECW_A.csv /home/grierjones/DDCASPT2/ozone/ANO-RCC-VTZP/ozone_180.25/GMJ_IVECW_A.csv

>>> COPY /tmp/ozone_180.25/GMJ_IVECX_A.csv /home/grierjones/DDCASPT2/ozone/ANO-RCC-VTZP/ozone_180.25/GMJ_IVECX_A.csv

>>> COPY /tmp/ozone_180.25/GMJ_IVECC2_A.csv /home/grierjones/DDCASPT2/ozone/ANO-RCC-VTZP/ozone_180.25/GMJ_IVECC2_A.csv

>>> COPY /tmp/ozone_180.25/GMJ_e2_A.csv /home/grierjones/DDCASPT2/ozone/ANO-RCC-VTZP/ozone_180.25/GMJ_e2_A.csv

>>> END FOREACH

>>> EXPORT i = C

>>> IF (-FILE GMJ_e2_$i.csv)

>>> COPY /tmp/ozone_180.25/GMJ_RHS_C.csv /home/grierjones/DDCASPT2/ozone/ANO-RCC-VTZP/ozone_180.25/GMJ_RHS_C.csv

>>> COPY /tmp/ozone_180.25/GMJ_IVECW_C.csv /home/grierjones/DDCASPT2/ozone/ANO-RCC-VTZP/ozone_180.25/GMJ_IVECW_C.csv

>>> COPY /tmp/ozone_180.25/GMJ_IVECX_C.csv /home/grierjones/DDCASPT2/ozone/ANO-RCC-VTZP/ozone_180.25/GMJ_IVECX_C.csv

>>> COPY /tmp/ozone_180.25/GMJ_IVECC2_C.csv /home/grierjones/DDCASPT2/ozone/ANO-RCC-VTZP/ozone_180.25/GMJ_IVECC2_C.csv

>>> COPY /tmp/ozone_180.25/GMJ_e2_C.csv /home/grierjones/DDCASPT2/ozone/ANO-RCC-VTZP/ozone_180.25/GMJ_e2_C.csv

>>> END FOREACH

>>> EXPORT i = D

>>> IF (-FILE GMJ_e2_$i.csv)

>>> COPY /tmp/ozone_180.25/GMJ_RHS_D.csv /home/grierjones/DDCASPT2/ozone/ANO-RCC-VTZP/ozone_180.25/GMJ_RHS_D.csv

>>> COPY /tmp/ozone_180.25/GMJ_IVECW_D.csv /home/grierjones/DDCASPT2/ozone/ANO-RCC-VTZP/ozone_180.25/GMJ_IVECW_D.csv

>>> COPY /tmp/ozone_180.25/GMJ_IVECX_D.csv /home/grierjones/DDCASPT2/ozone/ANO-RCC-VTZP/ozone_180.25/GMJ_IVECX_D.csv

>>> COPY /tmp/ozone_180.25/GMJ_IVECC2_D.csv /home/grierjones/DDCASPT2/ozone/ANO-RCC-VTZP/ozone_180.25/GMJ_IVECC2_D.csv

>>> COPY /tmp/ozone_180.25/GMJ_e2_D.csv /home/grierjones/DDCASPT2/ozone/ANO-RCC-VTZP/ozone_180.25/GMJ_e2_D.csv

>>> END FOREACH

.########################.
.# Non-zero return code #.
.########################.

    Timing: Wall=17.49 User=9.55 System=7.93
********************************************
*** WorkDir at /tmp/ozone_180.25 cleaned ***
********************************************
