[Molden Format]
[N_Atoms]
                     2
[Atoms] (AU)
B1          1      5           0.00000000      0.00000000      0.00000000
B2          2      5           0.00000000      0.00000000      2.64561657
[Charge] (Mulliken)
  0.000000000000000E+000
  0.000000000000000E+000
[GTO] (AU)
   1
   s  14
  3.336021700E+04  1.039699991E-04
  4.972095200E+03  5.254399956E-04
  1.125641700E+03  2.509059979E-03
  3.164913600E+02  1.031887991E-02
  1.020072600E+02  3.636632969E-02
  3.629587300E+01  1.064607991E-01
  1.397141000E+01  2.403999880E-01
  5.741156000E+00  3.748581168E-01
  2.494268000E+00  3.100066974E-01
  1.114202000E+00  7.922455933E-02
  4.215490000E-01 -4.947589958E-03
  1.696330000E-01 -7.737119935E-03
  6.853500000E-02 -1.501079987E-03
  2.398700000E-02 -1.333299989E-04
   s  14
  3.336021700E+04 -2.030000008E-05
  4.972095200E+03 -1.025700004E-04
  1.125641700E+03 -4.911300020E-04
  3.164913600E+02 -2.026570008E-03
  1.020072600E+02 -7.261010030E-03
  3.629587300E+01 -2.197722009E-02
  1.397141000E+01 -5.408428022E-02
  5.741156000E+00 -1.022402604E-01
  2.494268000E+00 -1.423595206E-01
  1.114202000E+00 -4.658690019E-02
  4.215490000E-01  3.799402916E-01
  1.696330000E-01  5.890463624E-01
  6.853500000E-02  1.749075107E-01
  2.398700000E-02 -1.142030005E-03
   p   9
  5.500000000E+01  1.229800005E-03
  1.336610100E+01  8.827380035E-03
  4.135394000E+00  3.843340015E-02
  1.481256000E+00  1.150031805E-01
  6.021360000E-01  2.733674011E-01
  2.556360000E-01  4.061972116E-01
  1.111510000E-01  3.014967912E-01
  4.764800000E-02  7.684809030E-02
  1.667700000E-02 -8.170000032E-06
 
   2
   s  14
  3.336021700E+04  1.039699991E-04
  4.972095200E+03  5.254399956E-04
  1.125641700E+03  2.509059979E-03
  3.164913600E+02  1.031887991E-02
  1.020072600E+02  3.636632969E-02
  3.629587300E+01  1.064607991E-01
  1.397141000E+01  2.403999880E-01
  5.741156000E+00  3.748581168E-01
  2.494268000E+00  3.100066974E-01
  1.114202000E+00  7.922455933E-02
  4.215490000E-01 -4.947589958E-03
  1.696330000E-01 -7.737119935E-03
  6.853500000E-02 -1.501079987E-03
  2.398700000E-02 -1.333299989E-04
   s  14
  3.336021700E+04 -2.030000008E-05
  4.972095200E+03 -1.025700004E-04
  1.125641700E+03 -4.911300020E-04
  3.164913600E+02 -2.026570008E-03
  1.020072600E+02 -7.261010030E-03
  3.629587300E+01 -2.197722009E-02
  1.397141000E+01 -5.408428022E-02
  5.741156000E+00 -1.022402604E-01
  2.494268000E+00 -1.423595206E-01
  1.114202000E+00 -4.658690019E-02
  4.215490000E-01  3.799402916E-01
  1.696330000E-01  5.890463624E-01
  6.853500000E-02  1.749075107E-01
  2.398700000E-02 -1.142030005E-03
   p   9
  5.500000000E+01  1.229800005E-03
  1.336610100E+01  8.827380035E-03
  4.135394000E+00  3.843340015E-02
  1.481256000E+00  1.150031805E-01
  6.021360000E-01  2.733674011E-01
  2.556360000E-01  4.061972116E-01
  1.111510000E-01  3.014967912E-01
  4.764800000E-02  7.684809030E-02
  1.667700000E-02 -8.170000032E-06
 
[MO]
Sym=     1a  
Ene=    -7.7143
Spin= Alpha
Occup=    2.00000
   1        -0.70594500
   2         0.00312612
   3        -0.00000000
   4        -0.00000000
   5         0.00360999
   6         0.70594500
   7        -0.00312612
   8         0.00000000
   9         0.00000000
  10         0.00360999
Sym=     2a  
Ene=    -7.6935
Spin= Alpha
Occup=    2.00000
   1         0.70683136
   2         0.00364364
   3         0.00000000
   4         0.00000000
   5         0.00382367
   6         0.70683136
   7         0.00364364
   8        -0.00000000
   9        -0.00000000
  10        -0.00382367
Sym=     3a  
Ene=    -0.8329
Spin= Alpha
Occup=    2.00000
   1        -0.06242378
   2         0.50355540
   3        -0.00000000
   4         0.00000000
   5         0.16446139
   6        -0.06242378
   7         0.50355540
   8         0.00000000
   9         0.00000000
  10        -0.16446139
Sym=     4a  
Ene=    -0.4443
Spin= Alpha
Occup=    1.33333
   1         0.01886658
   2        -0.51380880
   3         0.00000000
   4        -0.00000000
   5         0.42877800
   6        -0.01886658
   7         0.51380880
   8         0.00000000
   9        -0.00000000
  10         0.42877800
Sym=     5a  
Ene=    -0.4429
Spin= Alpha
Occup=    1.33333
   1        -0.00000000
   2         0.00000000
   3         0.59166681
   4        -0.03086913
   5        -0.00000000
   6         0.00000000
   7        -0.00000000
   8         0.59166681
   9        -0.03086913
  10        -0.00000000
Sym=     6a  
Ene=    -0.4429
Spin= Alpha
Occup=    1.33333
   1         0.00000000
   2        -0.00000000
   3         0.03086913
   4         0.59166681
   5         0.00000000
   6        -0.00000000
   7         0.00000000
   8         0.03086913
   9         0.59166681
  10         0.00000000
Sym=     7a  
Ene=    -0.2791
Spin= Alpha
Occup=    0.00000
   1         0.06358267
   2         0.35882934
   3        -0.00000000
   4        -0.00000000
   5        -0.68978270
   6         0.06358267
   7         0.35882934
   8         0.00000000
   9        -0.00000000
  10         0.68978270
Sym=     8a  
Ene=    -0.1789
Spin= Alpha
Occup=    0.00000
   1         0.00000000
   2         0.00000000
   3        -0.63225659
   4        -0.68478140
   5         0.00000000
   6        -0.00000000
   7        -0.00000000
   8         0.63225659
   9         0.68478140
  10         0.00000000
Sym=     9a  
Ene=    -0.1789
Spin= Alpha
Occup=    0.00000
   1         0.00000000
   2         0.00000000
   3        -0.68478140
   4         0.63225659
   5         0.00000000
   6        -0.00000000
   7        -0.00000000
   8         0.68478140
   9        -0.63225659
  10         0.00000000
Sym=    10a  
Ene=    -0.0391
Spin= Alpha
Occup=    0.00000
   1         0.29919144
   2         1.82149723
   3         0.00000000
   4        -0.00000000
   5         1.37177744
   6        -0.29919144
   7        -1.82149723
   8        -0.00000000
   9         0.00000000
  10         1.37177744
