[Molden Format]
[N_Atoms]
                     2
[Atoms] (AU)
F1          1      9           0.00000000      0.00000000      0.00000000
F2          2      9           0.00000000      0.00000000      1.32280829
[Charge] (Mulliken)
  0.999999999999766     
   1.00000000000021     
[GTO] (AU)
   1
   s  14
  1.031094600E+05  1.713099991E-04
  1.528100700E+04  7.123999962E-04
  3.441539200E+03  2.990479984E-03
  9.670948300E+02  1.164036994E-02
  3.140353400E+02  3.968642979E-02
  1.134423000E+02  1.128546094E-01
  4.464472700E+01  2.473650687E-01
  1.894287400E+01  3.672702681E-01
  8.532743000E+00  2.896286985E-01
  3.919401000E+00  7.786681959E-02
  1.568157000E+00  4.562139976E-03
  6.232900000E-01  2.468879987E-03
  2.408610000E-01  1.106309994E-03
  8.430100000E-02  1.739699991E-04
   s  14
  1.031094600E+05 -4.044999995E-05
  1.528100700E+04 -1.682299998E-04
  3.441539200E+03 -7.084299991E-04
  9.670948300E+02 -2.767999996E-03
  3.140353400E+02 -9.611379987E-03
  1.134423000E+02 -2.833957996E-02
  4.464472700E+01 -6.839343991E-02
  1.894287400E+01 -1.237379298E-01
  8.532743000E+00 -1.512859698E-01
  3.919401000E+00 -9.099909988E-03
  1.568157000E+00  3.716257695E-01
  6.232900000E-01  5.500214393E-01
  2.408610000E-01  2.092318697E-01
  8.430100000E-02  8.074639989E-03
   p   9
  2.453302900E+02  1.024860004E-03
  5.691900500E+01  8.344290032E-03
  1.760456800E+01  4.078927016E-02
  6.274995000E+00  1.351370605E-01
  2.447030000E+00  2.798830811E-01
  9.950600000E-01  3.597966414E-01
  4.039730000E-01  3.055347412E-01
  1.548100000E-01  1.354703905E-01
  5.418400000E-02  2.804449011E-02
 
   2
   s  14
  1.031094600E+05  1.713099991E-04
  1.528100700E+04  7.123999962E-04
  3.441539200E+03  2.990479984E-03
  9.670948300E+02  1.164036994E-02
  3.140353400E+02  3.968642979E-02
  1.134423000E+02  1.128546094E-01
  4.464472700E+01  2.473650687E-01
  1.894287400E+01  3.672702681E-01
  8.532743000E+00  2.896286985E-01
  3.919401000E+00  7.786681959E-02
  1.568157000E+00  4.562139976E-03
  6.232900000E-01  2.468879987E-03
  2.408610000E-01  1.106309994E-03
  8.430100000E-02  1.739699991E-04
   s  14
  1.031094600E+05 -4.044999995E-05
  1.528100700E+04 -1.682299998E-04
  3.441539200E+03 -7.084299991E-04
  9.670948300E+02 -2.767999996E-03
  3.140353400E+02 -9.611379987E-03
  1.134423000E+02 -2.833957996E-02
  4.464472700E+01 -6.839343991E-02
  1.894287400E+01 -1.237379298E-01
  8.532743000E+00 -1.512859698E-01
  3.919401000E+00 -9.099909988E-03
  1.568157000E+00  3.716257695E-01
  6.232900000E-01  5.500214393E-01
  2.408610000E-01  2.092318697E-01
  8.430100000E-02  8.074639989E-03
   p   9
  2.453302900E+02  1.024860004E-03
  5.691900500E+01  8.344290032E-03
  1.760456800E+01  4.078927016E-02
  6.274995000E+00  1.351370605E-01
  2.447030000E+00  2.798830811E-01
  9.950600000E-01  3.597966414E-01
  4.039730000E-01  3.055347412E-01
  1.548100000E-01  1.354703905E-01
  5.418400000E-02  2.804449011E-02
 
[MO]
Sym=     1a  
Ene=   -28.8370
Spin= Alpha
Occup=    2.00000
   1         0.70605397
   2        -0.00365376
   3        -0.00000000
   4        -0.00000000
   5         0.00488078
   6         0.70605397
   7        -0.00365376
   8         0.00000000
   9         0.00000000
  10        -0.00488078
Sym=     2a  
Ene=   -28.8180
Spin= Alpha
Occup=    2.00000
   1        -0.70890136
   2        -0.00309776
   3        -0.00000000
   4        -0.00000000
   5        -0.00599328
   6         0.70890136
   7         0.00309776
   8         0.00000000
   9         0.00000000
  10        -0.00599328
Sym=     3a  
Ene=    -4.5459
Spin= Alpha
Occup=    2.00000
   1        -0.08791635
   2         0.36444020
   3         0.00000000
   4         0.00000000
   5         0.38356691
   6        -0.08791635
   7         0.36444020
   8         0.00000000
   9         0.00000000
  10        -0.38356691
Sym=     4a  
Ene=    -2.7363
Spin= Alpha
Occup=    2.00000
   1         0.00000000
   2         0.00000000
   3        -0.15296730
   4         0.56520744
   5        -0.00000000
   6        -0.00000000
   7        -0.00000000
   8        -0.15296730
   9         0.56520744
  10        -0.00000000
Sym=     5a  
Ene=    -2.7363
Spin= Alpha
Occup=    2.00000
   1        -0.00000000
   2        -0.00000000
   3         0.56520744
   4         0.15296730
   5         0.00000000
   6         0.00000000
   7         0.00000000
   8         0.56520744
   9         0.15296730
  10         0.00000000
Sym=     6a  
Ene=    -2.6434
Spin= Alpha
Occup=    2.00000
   1        -0.04066995
   2        -0.78144142
   3        -0.00000000
   4         0.00000000
   5         0.23113276
   6         0.04066995
   7         0.78144142
   8        -0.00000000
   9         0.00000000
  10         0.23113276
Sym=     7a  
Ene=    -2.5034
Spin= Alpha
Occup=    2.00000
   1         0.05132564
   2         0.49510329
   3         0.00000000
   4         0.00000000
   5        -0.63323964
   6         0.05132564
   7         0.49510329
   8         0.00000000
   9         0.00000000
  10         0.63323964
Sym=     8a  
Ene=    -1.5892
Spin= Alpha
Occup=    1.00000
   1         0.00000000
   2         0.00000000
   3        -0.95899151
   4        -0.05833351
   5        -0.00000000
   6        -0.00000000
   7        -0.00000000
   8         0.95899151
   9         0.05833351
  10         0.00000000
Sym=     9a  
Ene=     0.0000
Spin= Alpha
Occup=    1.00000
   1         0.00000000
   2         0.00000000
   3        -0.05833351
   4         0.95899151
   5        -0.00000000
   6         0.00000000
   7         0.00000000
   8         0.05833351
   9        -0.95899151
  10         0.00000000
Sym=    10a  
Ene=     0.5937
Spin= Alpha
Occup=    0.00000
   1         0.34612154
   2         1.75510385
   3        -0.00000000
   4        -0.00000000
   5         1.32244985
   6        -0.34612154
   7        -1.75510385
   8        -0.00000000
   9         0.00000000
  10         1.32244985
