[Molden Format]
[N_Atoms]
                     2
[Atoms] (AU)
F1          1      9           0.00000000      0.00000000      0.00000000
F2          2      9           0.00000000      0.00000000      1.32280829
[Charge] (Mulliken)
 -2.131628207280301E-013
  1.865174681370263E-013
[GTO] (AU)
   1
   s  14
  1.031094600E+05  1.713099991E-04
  1.528100700E+04  7.123999962E-04
  3.441539200E+03  2.990479984E-03
  9.670948300E+02  1.164036994E-02
  3.140353400E+02  3.968642979E-02
  1.134423000E+02  1.128546094E-01
  4.464472700E+01  2.473650687E-01
  1.894287400E+01  3.672702681E-01
  8.532743000E+00  2.896286985E-01
  3.919401000E+00  7.786681959E-02
  1.568157000E+00  4.562139976E-03
  6.232900000E-01  2.468879987E-03
  2.408610000E-01  1.106309994E-03
  8.430100000E-02  1.739699991E-04
   s  14
  1.031094600E+05 -4.044999995E-05
  1.528100700E+04 -1.682299998E-04
  3.441539200E+03 -7.084299991E-04
  9.670948300E+02 -2.767999996E-03
  3.140353400E+02 -9.611379987E-03
  1.134423000E+02 -2.833957996E-02
  4.464472700E+01 -6.839343991E-02
  1.894287400E+01 -1.237379298E-01
  8.532743000E+00 -1.512859698E-01
  3.919401000E+00 -9.099909988E-03
  1.568157000E+00  3.716257695E-01
  6.232900000E-01  5.500214393E-01
  2.408610000E-01  2.092318697E-01
  8.430100000E-02  8.074639989E-03
   p   9
  2.453302900E+02  1.024860004E-03
  5.691900500E+01  8.344290032E-03
  1.760456800E+01  4.078927016E-02
  6.274995000E+00  1.351370605E-01
  2.447030000E+00  2.798830811E-01
  9.950600000E-01  3.597966414E-01
  4.039730000E-01  3.055347412E-01
  1.548100000E-01  1.354703905E-01
  5.418400000E-02  2.804449011E-02
 
   2
   s  14
  1.031094600E+05  1.713099991E-04
  1.528100700E+04  7.123999962E-04
  3.441539200E+03  2.990479984E-03
  9.670948300E+02  1.164036994E-02
  3.140353400E+02  3.968642979E-02
  1.134423000E+02  1.128546094E-01
  4.464472700E+01  2.473650687E-01
  1.894287400E+01  3.672702681E-01
  8.532743000E+00  2.896286985E-01
  3.919401000E+00  7.786681959E-02
  1.568157000E+00  4.562139976E-03
  6.232900000E-01  2.468879987E-03
  2.408610000E-01  1.106309994E-03
  8.430100000E-02  1.739699991E-04
   s  14
  1.031094600E+05 -4.044999995E-05
  1.528100700E+04 -1.682299998E-04
  3.441539200E+03 -7.084299991E-04
  9.670948300E+02 -2.767999996E-03
  3.140353400E+02 -9.611379987E-03
  1.134423000E+02 -2.833957996E-02
  4.464472700E+01 -6.839343991E-02
  1.894287400E+01 -1.237379298E-01
  8.532743000E+00 -1.512859698E-01
  3.919401000E+00 -9.099909988E-03
  1.568157000E+00  3.716257695E-01
  6.232900000E-01  5.500214393E-01
  2.408610000E-01  2.092318697E-01
  8.430100000E-02  8.074639989E-03
   p   9
  2.453302900E+02  1.024860004E-03
  5.691900500E+01  8.344290032E-03
  1.760456800E+01  4.078927016E-02
  6.274995000E+00  1.351370605E-01
  2.447030000E+00  2.798830811E-01
  9.950600000E-01  3.597966414E-01
  4.039730000E-01  3.055347412E-01
  1.548100000E-01  1.354703905E-01
  5.418400000E-02  2.804449011E-02
 
[MO]
Sym=     1a  
Ene=   -26.7780
Spin= Alpha
Occup=    2.00000
   1         0.70596681
   2        -0.00233895
   3        -0.00000000
   4        -0.00000000
   5         0.00469784
   6         0.70596682
   7        -0.00233895
   8         0.00000000
   9         0.00000000
  10        -0.00469784
Sym=     2a  
Ene=   -26.7610
Spin= Alpha
Occup=    2.00000
   1        -0.70943528
   2        -0.00709276
   3        -0.00000000
   4        -0.00000000
   5        -0.00718486
   6         0.70943528
   7         0.00709276
   8         0.00000000
   9         0.00000000
  10        -0.00718486
Sym=     3a  
Ene=    -2.9351
Spin= Alpha
Occup=    2.00000
   1        -0.08664145
   2         0.38778862
   3         0.00000000
   4        -0.00000000
   5         0.35272317
   6        -0.08664145
   7         0.38778862
   8         0.00000000
   9         0.00000000
  10        -0.35272317
Sym=     4a  
Ene=    -1.4016
Spin= Alpha
Occup=    2.00000
   1         0.00000000
   2         0.00000000
   3        -0.03555157
   4         0.58446089
   5         0.00000000
   6        -0.00000000
   7        -0.00000000
   8        -0.03555157
   9         0.58446089
  10        -0.00000000
Sym=     5a  
Ene=    -1.4016
Spin= Alpha
Occup=    2.00000
   1        -0.00000000
   2        -0.00000000
   3         0.58446089
   4         0.03555157
   5         0.00000000
   6         0.00000000
   7         0.00000000
   8         0.58446089
   9         0.03555157
  10         0.00000000
Sym=     6a  
Ene=    -1.2958
Spin= Alpha
Occup=    2.00000
   1        -0.02535947
   2        -0.71112639
   3        -0.00000000
   4        -0.00000000
   5         0.28347366
   6         0.02535947
   7         0.71112639
   8        -0.00000000
   9         0.00000000
  10         0.28347366
Sym=     7a  
Ene=    -1.1015
Spin= Alpha
Occup=    2.00000
   1         0.05458874
   2         0.47704485
   3         0.00000000
   4         0.00000000
   5        -0.65092560
   6         0.05458874
   7         0.47704485
   8         0.00000000
   9         0.00000000
  10         0.65092560
Sym=     8a  
Ene=    -0.4275
Spin= Alpha
Occup=    2.00000
   1        -0.00000000
   2         0.00000000
   3         0.05833351
   4        -0.95899151
   5        -0.00000000
   6        -0.00000000
   7        -0.00000000
   8        -0.05833351
   9         0.95899151
  10        -0.00000000
Sym=     9a  
Ene=    -0.4274
Spin= Alpha
Occup=    1.99942
   1        -0.00000000
   2        -0.00000000
   3        -0.95899151
   4        -0.05833351
   5        -0.00000000
   6         0.00000000
   7         0.00000000
   8         0.95899151
   9         0.05833351
  10        -0.00000000
Sym=    10a  
Ene=     0.0004
Spin= Alpha
Occup=    0.00058
   1         0.34648778
   2         1.78474053
   3        -0.00000000
   4        -0.00000000
   5         1.31222061
   6        -0.34648778
   7        -1.78474053
   8         0.00000000
   9         0.00000000
  10         1.31222061
