[Molden Format]
[N_Atoms]
                     2
[Atoms] (AU)
BE1         1      4           0.00000000      0.00000000      0.00000000
N2          2      7           0.00000000      0.00000000      3.02356180
[Charge] (Mulliken)
  0.344598082255171     
 -0.344598082255206     
[GTO] (AU)
   1
   s  14
  2.262859900E+04  8.443999941E-05
  3.372318100E+03  4.601499968E-04
  7.603504000E+02  2.285389984E-03
  2.117404800E+02  9.648129932E-03
  6.722346800E+01  3.494469975E-02
  2.337217700E+01  1.061099893E-01
  8.721373000E+00  2.458240383E-01
  3.468091000E+00  3.862428773E-01
  1.452144000E+00  3.105526078E-01
  6.086150000E-01  6.415933955E-02
  2.576860000E-01 -2.265049984E-03
  1.041760000E-01 -5.217499963E-04
  4.242700000E-02 -8.757499938E-04
  1.484900000E-02  1.242199991E-04
   s  14
  2.262859900E+04 -1.586999994E-05
  3.372318100E+03 -8.656999968E-05
  7.603504000E+02 -4.302199984E-04
  2.117404800E+02 -1.825079993E-03
  6.722346800E+01 -6.682749976E-03
  2.337217700E+01 -2.095119992E-02
  8.721373000E+00 -5.200308981E-02
  3.468091000E+00 -9.849176964E-02
  1.452144000E+00 -1.355800695E-01
  6.086150000E-01 -6.429875976E-02
  2.576860000E-01  3.125414989E-01
  1.041760000E-01  6.270468577E-01
  4.242700000E-02  2.110231492E-01
  1.484900000E-02 -4.104669985E-03
   p   9
  3.371018400E+01  1.069960000E-03
  8.057649500E+00  6.828550001E-03
  2.836471400E+00  2.119065000E-02
  1.099965700E+00  5.843696001E-02
  4.433964000E-01  2.020920800E-01
  1.822264000E-01  4.582953101E-01
  7.572410000E-02  3.691239601E-01
  3.168540000E-02  6.611471001E-02
  1.108990000E-02  1.405160000E-03
 
   2
   s  14
  7.476171500E+04  1.182599996E-04
  1.112365400E+04  5.172899983E-04
  2.512685700E+03  2.266659992E-03
  7.037772900E+02  9.145289970E-03
  2.254787900E+02  3.239342989E-02
  7.961581000E+01  9.770792967E-02
  3.023728300E+01  2.317036792E-01
  1.226362200E+01  3.768898887E-01
  5.265086000E+00  3.177420689E-01
  2.333471000E+00  8.211308973E-02
  9.018560000E-01  3.312089989E-03
  3.583360000E-01  3.720819988E-03
  1.410930000E-01  3.165419989E-03
  4.938300000E-02  4.595799985E-04
   s  14
  7.476171500E+04 -2.707000010E-05
  1.112365400E+04 -1.183700004E-04
  2.512685700E+03 -5.203800020E-04
  7.037772900E+02 -2.102930008E-03
  2.254787900E+02 -7.568200028E-03
  7.961581000E+01 -2.346767009E-02
  3.023728300E+01 -6.042901023E-02
  1.226362200E+01 -1.170549104E-01
  5.265086000E+00 -1.555321506E-01
  2.333471000E+00 -2.468935009E-02
  9.018560000E-01  3.625054514E-01
  3.583360000E-01  5.550845021E-01
  1.410930000E-01  2.148376908E-01
  4.938300000E-02  8.983850034E-03
   p   9
  1.266665700E+02  1.233630000E-03
  2.983738900E+01  9.493409996E-03
  9.394038000E+00  4.293961998E-02
  3.405104000E+00  1.362925399E-01
  1.350000000E+00  2.921362499E-01
  5.576960000E-01  3.887887598E-01
  2.324490000E-01  2.946801399E-01
  9.426400000E-02  8.012875997E-02
  3.299200000E-02  5.405199998E-04
 
[MO]
Sym=     1a  
Ene=   -15.4690
Spin= Alpha
Occup=    1.00000
   1        -0.00044168
   2        -0.00226157
   3        -0.00000000
   4         0.00000000
   5        -0.00180066
   6         1.00022267
   7        -0.00346460
   8         0.00000000
   9         0.00000000
  10        -0.00172062
Sym=     1a  
Ene=   -15.4690
Spin= Beta
Occup=    1.00000
   1        -0.00044168
   2        -0.00226157
   3        -0.00000000
   4         0.00000000
   5        -0.00180066
   6         1.00022267
   7        -0.00346460
   8         0.00000000
   9         0.00000000
  10        -0.00172062
Sym=     2a  
Ene=    -4.7730
Spin= Alpha
Occup=    1.00000
   1         0.99976093
   2         0.00270945
   3         0.00000000
   4         0.00000000
   5        -0.00161013
   6        -0.00008818
   7         0.00220712
   8         0.00000000
   9         0.00000000
  10        -0.00168247
Sym=     2a  
Ene=    -4.7730
Spin= Beta
Occup=    1.00000
   1         0.99976093
   2         0.00270945
   3         0.00000000
   4         0.00000000
   5        -0.00161013
   6        -0.00008818
   7         0.00220712
   8         0.00000000
   9         0.00000000
  10        -0.00168247
Sym=     3a  
Ene=    -0.9123
Spin= Alpha
Occup=    1.00000
   1        -0.05099662
   2         0.17466576
   3        -0.00000000
   4        -0.00000000
   5         0.09831382
   6        -0.01013802
   7         0.84837087
   8        -0.00000000
   9        -0.00000000
  10        -0.15606539
Sym=     3a  
Ene=    -0.9123
Spin= Beta
Occup=    1.00000
   1        -0.05099662
   2         0.17466576
   3        -0.00000000
   4        -0.00000000
   5         0.09831382
   6        -0.01013802
   7         0.84837087
   8        -0.00000000
   9        -0.00000000
  10        -0.15606539
Sym=     4a  
Ene=    -0.3199
Spin= Alpha
Occup=    1.00000
   1         0.00000000
   2        -0.00000000
   3         0.37169552
   4        -0.24061613
   5         0.00000000
   6         0.00000000
   7         0.00000000
   8         0.66244069
   9        -0.42882926
  10         0.00000000
Sym=     4a  
Ene=    -0.3199
Spin= Beta
Occup=    1.00000
   1         0.00000000
   2        -0.00000000
   3         0.37169552
   4        -0.24061613
   5         0.00000000
   6         0.00000000
   7         0.00000000
   8         0.66244069
   9        -0.42882926
  10         0.00000000
Sym=     5a  
Ene=    -0.1177
Spin= Alpha
Occup=    1.00000
   1        -0.00000000
   2        -0.00000000
   3         0.13534960
   4         0.20908341
   5         0.00000000
   6         0.00000000
   7         0.00000000
   8         0.49236555
   9         0.76058935
  10        -0.00000000
Sym=     5a  
Ene=    -0.1177
Spin= Beta
Occup=    0.00000
   1        -0.00000000
   2        -0.00000000
   3         0.13534960
   4         0.20908341
   5         0.00000000
   6         0.00000000
   7         0.00000000
   8         0.49236555
   9         0.76058935
  10        -0.00000000
Sym=     6a  
Ene=    -0.0014
Spin= Alpha
Occup=    1.00000
   1         0.03451005
   2        -0.59272807
   3        -0.00000000
   4        -0.00000000
   5        -0.05910974
   6         0.03245199
   7         0.51472751
   8         0.00000000
   9         0.00000000
  10         0.65280594
Sym=     6a  
Ene=    -0.0014
Spin= Beta
Occup=    1.00000
   1         0.03451005
   2        -0.59272807
   3        -0.00000000
   4        -0.00000000
   5        -0.05910974
   6         0.03245199
   7         0.51472751
   8         0.00000000
   9         0.00000000
  10         0.65280594
Sym=     7a  
Ene=    -0.0194
Spin= Alpha
Occup=    0.00000
   1         0.03217761
   2         0.65046271
   3         0.00000000
   4         0.00000000
   5        -0.63434706
   6         0.01945680
   7         0.10788342
   8         0.00000000
   9         0.00000000
  10         0.47248249
Sym=     7a  
Ene=    -0.0194
Spin= Beta
Occup=    0.00000
   1         0.03217761
   2         0.65046271
   3         0.00000000
   4         0.00000000
   5        -0.63434706
   6         0.01945680
   7         0.10788342
   8         0.00000000
   9         0.00000000
  10         0.47248249
Sym=     8a  
Ene=     0.1623
Spin= Alpha
Occup=    0.00000
   1        -0.00000000
   2         0.00000000
   3         0.78571217
   4        -0.50862874
   5         0.00000000
   6        -0.00000000
   7        -0.00000000
   8        -0.56273751
   9         0.36428667
  10        -0.00000000
Sym=     8a  
Ene=     0.1623
Spin= Beta
Occup=    0.00000
   1        -0.00000000
   2         0.00000000
   3         0.78571217
   4        -0.50862874
   5         0.00000000
   6        -0.00000000
   7        -0.00000000
   8        -0.56273751
   9         0.36428667
  10        -0.00000000
Sym=     9a  
Ene=     0.1644
Spin= Alpha
Occup=    0.00000
   1        -0.00000000
   2         0.00000000
   3        -0.54614998
   4        -0.84367369
   5        -0.00000000
   6         0.00000000
   7         0.00000000
   8         0.27235177
   9         0.42071964
  10        -0.00000000
Sym=     9a  
Ene=     0.1644
Spin= Beta
Occup=    0.00000
   1        -0.00000000
   2         0.00000000
   3        -0.54614998
   4        -0.84367369
   5        -0.00000000
   6         0.00000000
   7         0.00000000
   8         0.27235177
   9         0.42071964
  10        -0.00000000
Sym=    10a  
Ene=     0.4630
Spin= Alpha
Occup=    0.00000
   1         0.09991232
   2         0.80368612
   3        -0.00000000
   4        -0.00000000
   5         1.09586466
   6        -0.11758379
   7        -0.91419242
   8         0.00000000
   9         0.00000000
  10         0.74835049
Sym=    10a  
Ene=     0.4630
Spin= Beta
Occup=    0.00000
   1         0.09991232
   2         0.80368612
   3        -0.00000000
   4        -0.00000000
   5         1.09586466
   6        -0.11758379
   7        -0.91419242
   8         0.00000000
   9         0.00000000
  10         0.74835049
