   This run of MOLCAS is using the pymolcas driver

                             OPE
                             OPE          NMOL  CASOP  ENMOLC A   SO
                 OPE        NMOLC        AS  OP EN  MO LC     AS  OP
                OPENM       OL CA        SO  PE NM  OL CA     SOP EN
                OP EN      MO   LC       AS  OP ENMOL  CASO   PENMOL
                OP  EN     MO   LC       AS  OP EN     MO     LC ASO
               OP   E  NMOL  C  AS       OP  EN MO     LC     AS  OP
               OP  E   NMO   LC AS        OPEN  MO     LCASOP EN   M
               O  PEN   MO  LCA  SO
            OPE   NMO   L   CAS    OP
        OPENMOL  CASOP     ENMOL   CASOPE
     OPENMOLCA   SOPENMOLCASOPEN   MOLCASOPE
    OPENMOLCAS   OP           EN   MOL    CAS
    OPENMOLCAS       OP  ENM        O     LCA
    OPENMOLCAS    OPEN  MOLCASO     P  E  NMO
    OPENMOLCAS     OP               E  N  MOL
    OPENMOLCA   SO           PENM   O  L  CAS    OPEN    MO    LCAS
    OPENMOLCA   SOP           ENM   O  L  CAS   OP  EN  MOLC  AS   O
    OPENMOLCA   SOPE           NM      O  LCA   S      OP  EN MO
    OPENMOLC                AS         O  PEN   M      OL  CA  SOPE
    OPENMO        LCASOPE  NMOL        C  ASO   P      ENMOLC     AS
    OPE     NMO      LCA  SO     P     E   NM   OL  CA SO  PE N   MO
          OPENMOLCA            SOPE   NMO        LCAS  O    P  ENMO
     OPENMOLCASOPENMOLCASOPENMOLCASOPENMOLCA
        OPENMOLCASOPENMOLCASOPENMOLCASOPE
            OPENMOLCASOPENMOLCASOPENM
               OPENMOLCASOPENMOLCA        version: 1d1d16313-dirty
                   OPENMOLCASO
                       OPE                tag:

 OpenMolcas is free software; you can redistribute it and/or modify it
 under the terms of the GNU Lesser General Public License version 2.1.
 OpenMolcas is distributed in the hope that it will be useful, but it
 is provided "as is" and without any express or implied warranties.
 For more details see the full text of the license in the file
 LICENSE or in <http://www.gnu.org/licenses/>.

                 Copyright (C) The OpenMolcas Authors
           For the author list and the recommended citation,
                   consult the file CONTRIBUTORS.md

           *************************************************
           * pymolcas version py2.28                       *
           *   build c4a6d18ded8cb6cad61d2372a9abd97c      *
           *   (after the EMIL interpreter by V. Veryazov) *
           *************************************************

configuration info
------------------
C Compiler ID: IntelLLVM
C flags: -std=gnu99
Fortran Compiler ID: IntelLLVM
Fortran flags: -standard-semantics -fltconsistency -fpp -i8 -heap-arrays
Definitions: _MOLCAS_;_I8_;_LINUX_
Parallel: OFF (GA=OFF)


   ------------------------------------------------------------------------------
  |
  |              Project: ozone_177.75
  |       Submitted from: /home/grierjones/DDCASPT2/ozone/ANO-RCC-MB/ozone_177.75
  |         Scratch area: /tmp/ozone_177.75
  |      Save outputs to: /home/grierjones/DDCASPT2/ozone/ANO-RCC-MB/ozone_177.75
  |               Molcas: /home/grierjones/Test/build
  |
  | Scratch area is empty
  |
  |       MOLCAS_DRIVER = /usr/local/pymolcas
  | MOLCAS_KEEP_WORKDIR = NO
  |  MOLCAS_NEW_WORKDIR = YES
  |       MOLCAS_NPROCS = 1
  |        MOLCAS_PRINT = NORMAL
  |       MOLCAS_SOURCE = /home/grierjones/Test
  |    MOLCAS_STRUCTURE = 0
  |
   ------------------------------------------------------------------------------

++ ---------   Input file   ---------

&GATEWAY
coord=ozone_177.75.xyz
Basis = ANO-RCC-MB
Group = nosymm
Expert
End of Input

&SEWARD
End of Input

&SCF

>>> COPY $WorkDir/ozone_177.75.scf.h5 $CurrDir/

&RASSCF
Title= RASSCF
FileOrb
/home/grierjones/DDCASPT2/ozone/ANO-RCC-MB/ozone_177.50/ozone_177.50.RasOrb
NACTEL
4 0 0
Inactive
10
RAS2
3
Symmetry
1
Spin
1
orblisting
all
ITERation
300 200

>>> COPY $WorkDir/ozone_177.75.rasscf.h5 $CurrDir/

>>> COPY $WorkDir/GMJ_Fock_MO.csv $CurrDir/ozone_177.75.GMJ_Fock_MO.csv

>>> COPY $WorkDir/GMJ_PT2_Fock_MO.csv $CurrDir/ozone_177.75.GMJ_PT2_Fock_MO.csv

&MOTRA
Frozen=0
LUMORB

>>> COPY $WorkDir/GMJ_one_int_indx.csv $CurrDir/ozone_177.75.GMJ_one_int_indx.csv

>>> COPY $WorkDir/GMJ_one_int.csv $CurrDir/ozone_177.75.GMJ_one_int.csv

>>> COPY $WorkDir/GMJ_two_int_indx.csv $CurrDir/ozone_177.75.GMJ_two_int_indx.csv

>>> COPY $WorkDir/GMJ_two_int.csv $CurrDir/ozone_177.75.GMJ_two_int.csv

&CASPT2
Frozen
0
MAXITER
50

>>> FOREACH i IN (B,E,F,G,H)

  >>> FOREACH j IN (P,M)

    >>> IF (-FILE GMJ_e2_${i}_${j}.csv)

      >>> COPY $WorkDir/GMJ_RHS_${i}_${j}.csv $CurrDir/GMJ_RHS_${i}_${j}.csv

      >>> COPY $WorkDir/GMJ_IVECW_${i}_${j}.csv $CurrDir/GMJ_IVECW_${i}_${j}.csv

      >>> COPY $WorkDir/GMJ_IVECX_${i}_${j}.csv $CurrDir/GMJ_IVECX_${i}_${j}.csv

      >>> COPY $WorkDir/GMJ_IVECC2_${i}_${j}.csv $CurrDir/GMJ_IVECC2_${i}_${j}.csv

      >>> COPY $WorkDir/GMJ_e2_${i}_${j}.csv $CurrDir/GMJ_e2_${i}_${j}.csv

    >>> END IF

  >>> END FOREACH

>>> END FOREACH

>>> FOREACH i IN (A,C,D)

  >>> IF (-FILE GMJ_e2_$i.csv)

    >>> COPY $WorkDir/GMJ_RHS_$i.csv $CurrDir/GMJ_RHS_$i.csv

    >>> COPY $WorkDir/GMJ_IVECW_$i.csv $CurrDir/GMJ_IVECW_$i.csv

    >>> COPY $WorkDir/GMJ_IVECX_$i.csv $CurrDir/GMJ_IVECX_$i.csv

    >>> COPY $WorkDir/GMJ_IVECC2_$i.csv $CurrDir/GMJ_IVECC2_$i.csv

    >>> COPY $WorkDir/GMJ_e2_$i.csv $CurrDir/GMJ_e2_$i.csv

  >>> END IF

>>> END FOREACH

-- ----------------------------------

--- Start Module: gateway at Sat Jan 25 14:11:20 2025 ---
 
()()()()()()()()()()()()()()()()()()()()()()()()()()()()()()()()()()()()()()()()()()()()()()()()()()

                                              &GATEWAY

                                   only a single process is used
                       available to each process: 2.0 GB of memory, 1 thread?
()()()()()()()()()()()()()()()()()()()()()()()()()()()()()()()()()()()()()()()()()()()()()()()()()()
 
 ###############################################################################
 ###############################################################################
 ###                                                                         ###
 ###                                                                         ###
 ###                                                                         ###
 ###    WARNING: EXPERT option is ON!                                        ###
 ###                                                                         ###
 ###                                                                         ###
 ###############################################################################
 ###############################################################################
 
++    Symmetry information:
      ---------------------
 
                    Character Table for C1 
 
                             E  
                    a        1  x, y, xy, Rz, z, xz, Ry, yz, Rx, I
--
 
 
++    Basis set information:
      ----------------------
 
 
      Basis set label: O.ANO-RCC...2S1P.
 
      Electronic valence basis set:
      ------------------
      Associated Effective Charge   8.000000 au
      Associated Actual Charge      8.000000 au
      Nuclear Model: Point charge
 
      Shell  nPrim  nBasis  Cartesian Spherical Contaminant
         s      14       2        X                  
         p       9       1        X                  
--
 
 
++    Molecular structure info:
      -------------------------
 
                    ************************************************ 
                    **** Cartesian Coordinates / Bohr, Angstrom **** 
                    ************************************************ 
 
     Center  Label                x              y              z                     x              y              z
        1      O1               0.047417       2.414605       0.000000              0.025092       1.277754       0.000000
        2      O2               0.000000       0.000000       0.000000              0.000000       0.000000       0.000000
        3      O3               0.047417      -2.414605       0.000000              0.025092      -1.277754       0.000000
 
                    *************************************** 
                    *    InterNuclear Distances / Bohr    * 
                    *************************************** 
 
               1 O1            2 O2            3 O3    
    1 O1       0.000000
    2 O2       2.415071        0.000000
    3 O3       4.829210        2.415071        0.000000
 
                    ******************************************* 
                    *    InterNuclear Distances / Angstrom    * 
                    ******************************************* 
 
               1 O1            2 O2            3 O3    
    1 O1       0.000000
    2 O2       1.278000        0.000000
    3 O3       2.555508        1.278000        0.000000
 
                    ************************************** 
                    *    Valence Bond Angles / Degree    * 
                    ************************************** 
                          Atom centers                 Phi
                      1 O1       2 O2       3 O3       177.75
--
 
 
            Nuclear Potential Energy             66.25320450 au
 
 ###############################################################################
 ###############################################################################
 ###                                                                         ###
 ###                                                                         ###
 ###    There were warnings during the execution                             ###
 ###    Please, check the output with care!                                  ###
 ###                                                                         ###
 ###                                                                         ###
 ###############################################################################
 ###############################################################################
--- Stop Module: gateway at Sat Jan 25 14:11:20 2025 /rc=_RC_ALL_IS_WELL_ ---
*** files: xmldump
    saved to directory /home/grierjones/DDCASPT2/ozone/ANO-RCC-MB/ozone_177.75

--- Start Module: seward at Sat Jan 25 14:11:20 2025 ---
 
()()()()()()()()()()()()()()()()()()()()()()()()()()()()()()()()()()()()()()()()()()()()()()()()()()

                                              &SEWARD

                                   only a single process is used
                       available to each process: 2.0 GB of memory, 1 thread?
()()()()()()()()()()()()()()()()()()()()()()()()()()()()()()()()()()()()()()()()()()()()()()()()()()
 
 ###############################################################################
 ###############################################################################
 ###                                                                         ###
 ###                                                                         ###
 ###                                                                         ###
 ###    WARNING: EXPERT option is ON!                                        ###
 ###                                                                         ###
 ###                                                                         ###
 ###############################################################################
 ###############################################################################
               SEWARD will generate:
                  Multipole Moment integrals up to order  2
                  Kinetic Energy integrals
                  Nuclear Attraction integrals (point charge)
                  One-Electron Hamiltonian integrals
                  Velocity integrals
                  Relativistic Douglas-Kroll-Hess integrals:
                    - Parametrization         : EXP
                    - DKH order of Hamiltonian: 2
                    - DKH order of Properties : 0
                         - multipole moment operators
                         - electric potential operators
                         - contact operators
                  Atomic mean-field integrals
                  Two-Electron Repulsion integrals
 
                   Integrals are discarded if absolute value <: 0.10E-13
                   Integral cutoff threshold is set to       <: 0.10E-15
 
            Nuclear Potential Energy             66.25320450 au
 
 
      Basis set specifications :
      Symmetry species         a  
      Basis functions           15
 
 
  Input file to MOLDEN was generated!
 
 ###############################################################################
 ###############################################################################
 ###                                                                         ###
 ###                                                                         ###
 ###    There were warnings during the execution                             ###
 ###    Please, check the output with care!                                  ###
 ###                                                                         ###
 ###                                                                         ###
 ###############################################################################
 ###############################################################################
forrtl: warning (525): IEEE_DIVIDE_BY_ZERO is signaling
forrtl: warning (526): IEEE_INVALID is signaling
forrtl: warning (528): IEEE_UNDERFLOW is signaling
--- Stop Module: seward at Sat Jan 25 14:11:20 2025 /rc=_RC_ALL_IS_WELL_ ---
*** files: ozone_177.75.GssOrb ozone_177.75.guessorb.h5 ozone_177.75.guessorb.molden xmldump
    saved to directory /home/grierjones/DDCASPT2/ozone/ANO-RCC-MB/ozone_177.75

*** symbolic link created: INPORB -> ozone_177.75.GssOrb
--- Start Module: scf at Sat Jan 25 14:11:20 2025 ---
 
()()()()()()()()()()()()()()()()()()()()()()()()()()()()()()()()()()()()()()()()()()()()()()()()()()

                                                &SCF

                                   only a single process is used
                       available to each process: 2.0 GB of memory, 1 thread?
()()()()()()()()()()()()()()()()()()()()()()()()()()()()()()()()()()()()()()()()()()()()()()()()()()
 
++    Input section:
      --------------
 
      Header of the integral files:
      
       Integrals generated by seward 4.2.0  , Sat Jan 25 14:11:20 2025
 
 
      Cartesian coordinates in Angstrom:
      -----------------------------------------------------
      No.  Label        X            Y            Z        
      -----------------------------------------------------
       1   O1         0.02509200   1.27775400   0.00000000
       2   O2         0.00000000   0.00000000   0.00000000
       3   O3         0.02509200  -1.27775400   0.00000000
      -----------------------------------------------------
      Nuclear repulsion energy =   66.25320450
--
 
++    Orbital specifications:
      -----------------------
 
      Symmetry species               1
                                     a
      Frozen orbitals                0
      Aufbau                        12
      Start temperature = 0.500
      End temperature   = 0.010
      Temperature Factor= 0.460
      Deleted orbitals               0
      Total number of orbitals      15
      Number of basis functions     15
--
 
      Molecular charge                           0.000
 
++    Optimization specifications:
      ----------------------------
 
      SCF Algorithm: Conventional
      Minimized density differences are used
      Number of density matrices in core                5
      Maximum number of NDDO SCF iterations           400
      Maximum number of HF SCF iterations             400
      Threshold for SCF energy change            0.10E-08
      Threshold for density matrix               0.10E-03
      Threshold for Fock matrix                  0.15E-03
      Threshold for linear dependence            0.10E-08
      Threshold at which DIIS is turned on       0.15E+00
      Threshold at which QNR/C2DIIS is turned on 0.75E-01
      Threshold for Norm(delta) (QNR/C2DIIS)     0.20E-04
      DIIS extrapolation of the SCF procedure
      All orbitals punched on: SCFORB
--
 
      Input vectors read from INPORB
      Orbital file label: *Guess orbitals
 
 
++ Convergence information
                                   SCF        iterations: Energy and convergence statistics
 
Iter     Tot. SCF        One-elec.       Two-elec.     Energy      Max Dij or  Max Fij      DNorm      TNorm      AccCon     Time
         Energy          Energy          Energy        Change      Delta Norm                                                in Sec.
   1  -221.452412708  -440.160557278   152.454940070   0.00E+00    0.68E-01*   0.13E+00*    0.77E+01   0.50E+02   None         0.
   2  -222.904880771  -439.304028737   150.145943467  -0.15E+01*   0.57E-01*   0.44E-01*    0.30E+01   0.50E+02   EDIIS        0.
   3  -223.679195545  -438.931468078   148.999068034  -0.77E+00*   0.39E-01*   0.26E-01*    0.15E+01   0.49E+02   EDIIS        0.
   4  -223.949993503  -438.338719386   148.135521383  -0.27E+00*   0.83E-01*   0.57E-01*    0.29E+00   0.49E+02   EDIIS        0.
   5  -223.960360400  -438.685822380   148.472257480  -0.10E-01*   0.58E-01*   0.30E-01*    0.25E+00   0.49E+02   EDIIS        0.
   6  -223.967790962  -438.406971358   148.185975896  -0.74E-02*   0.34E-01*   0.24E-01*    0.40E+00   0.49E+02   EDIIS        0.
   7  -224.180708071  -438.620230369   148.186317798  -0.21E+00*   0.90E-01*   0.32E-01*    0.52E+00   0.49E+02   EDIIS        0.
   8  -224.183473394  -438.408317744   147.971639849  -0.28E-02*   0.26E-01*   0.25E-01*    0.97E-01   0.49E+02   EDIIS        0.
 
       Fermi aufbau procedure completed!
      nOcc=   12
 
   9  -224.184212935  -438.524473354   148.087055919  -0.74E-03*   0.27E-01*   0.11E-01*    0.37E-01   0.49E+02   EDIIS        0.
  10  -224.184443212  -438.468198023   148.030550311  -0.23E-03*   0.79E-02*   0.69E-02*    0.37E-02   0.49E+02   EDIIS        0.
  11  -224.184515816  -438.500860044   148.063139728  -0.73E-04*   0.81E-02*   0.29E-02*    0.92E-03   0.49E+02   EDIIS        0.
  12  -224.184538995  -438.485603088   148.047859593  -0.23E-04*   0.24E-02*   0.16E-02*    0.47E-03   0.49E+02   EDIIS        0.
  13  -224.184546473  -438.494783356   148.057032383  -0.75E-05*   0.25E-02*   0.89E-03*    0.62E-04   0.49E+02   c2DIIS       0.
  14  -224.184548910  -438.490672579   148.052919169  -0.24E-05*   0.51E-03*   0.50E-03*    0.74E-05   0.49E+02   QNRc2DIIS    0.
  15  -224.184549717  -438.493192989   148.055438772  -0.81E-06*   0.56E-03*   0.28E-03*    0.15E-01   0.49E+02   QNRc2DIIS    0.
  16  -224.184550098  -438.492942628   148.055188030  -0.38E-06*   0.19E-03*   0.80E-04     0.21E-02   0.49E+02   QNRc2DIIS    0.
  17  -224.184550128  -438.492698161   148.054943533  -0.30E-07*   0.66E-04*   0.12E-04     0.14E-03   0.49E+02   QNRc2DIIS    0.
  18  -224.184550130  -438.492694656   148.054940027  -0.18E-08*   0.88E-06    0.43E-06     0.14E-02   0.49E+02   QNRc2DIIS    0.
  19  -224.184550130  -438.492694203   148.054939574  -0.10E-11    0.43E-07    0.24E-07     0.68E-02   0.49E+02   QNRc2DIIS    0.
 
       Convergence after 19 Macro Iterations
--
 
 *****************************************************************************************************************************
 *                                                                                                                           *
 *                                             SCF/KS-DFT Program, Final results                                             *
 *                                                                                                                           *
 *                                                                                                                           *
 *                                                                                                                           *
 *                                                       Final Results                                                       *
 *                                                                                                                           *
 *****************************************************************************************************************************
 
::    Total SCF energy                               -224.1845501296
      One-electron energy                            -438.4926942033
      Two-electron energy                             148.0549395737
      Nuclear repulsion energy                         66.2532045000
      Kinetic energy (interpolated)                   224.7826888749
      Virial theorem                                    0.9973390355
      Total spin, S(S+1)                                0.0000000000
      Total spin, S                                     0.0000000000
      Max non-diagonal density matrix element           0.0000000467
      Max non-diagonal Fock matrix element              0.0000000116
 
 
      All orbitals with orbital energies smaller than  E(LUMO)+0.5 are printed
 
++    Molecular orbitals:
      -------------------
 
      Title: SCF orbitals

      Molecular orbitals for symmetry species 1: a  
 
          Orbital            1         2         3         4         5         6         7         8         9        10    
          Energy          -20.9880  -20.8142  -20.8142   -1.7463   -1.5117   -1.1004   -0.8785   -0.8022   -0.8011   -0.6618
          Occ. No.          2.0000    2.0000    2.0000    2.0000    2.0000    2.0000    2.0000    2.0000    2.0000    2.0000
 
        1 O1     1s         0.0012   -0.7071    0.7071   -0.0151    0.0167    0.0141   -0.0007    0.0000   -0.0284    0.0007
        2 O1     2s        -0.0003   -0.0002    0.0000    0.3191   -0.5313    0.6616   -0.0128    0.0000   -0.4690    0.0102
        3 O1     2px       -0.0000    0.0000   -0.0000   -0.0023    0.0017    0.0049    0.3053   -0.0000   -0.0235   -0.7155
        4 O1     2py        0.0000    0.0013   -0.0011   -0.1051    0.1046    0.1600   -0.0135    0.0000   -0.4165    0.0247
        5 O1     2pz       -0.0000   -0.0000   -0.0000    0.0000    0.0000    0.0000    0.0000    0.3933    0.0000   -0.0000
        6 O2     1s         1.0000    0.0000   -0.0020   -0.0241   -0.0000   -0.0136   -0.0002    0.0000   -0.0000   -0.0000
        7 O2     2s         0.0002    0.0000   -0.0010    0.6592    0.0000   -0.6168   -0.0038    0.0000   -0.0000   -0.0000
        8 O2     2px        0.0001    0.0000   -0.0000    0.0075    0.0000    0.0095    0.7796   -0.0000    0.0000    0.0000
        9 O2     2py       -0.0000    0.0007    0.0000    0.0000   -0.3621   -0.0000    0.0000   -0.0000    0.6032   -0.0159
       10 O2     2pz        0.0000    0.0000    0.0000    0.0000   -0.0000    0.0000    0.0000    0.6771    0.0000    0.0000
       11 O3     1s         0.0012    0.7071    0.7071   -0.0151   -0.0167    0.0141   -0.0007   -0.0000    0.0284   -0.0007
       12 O3     2s        -0.0003    0.0002    0.0000    0.3191    0.5313    0.6616   -0.0128   -0.0000    0.4690   -0.0102
       13 O3     2px       -0.0000   -0.0000   -0.0000   -0.0023   -0.0017    0.0049    0.3053   -0.0000    0.0235    0.7155
       14 O3     2py       -0.0000    0.0013    0.0011    0.1051    0.1046   -0.1600    0.0135    0.0000   -0.4165    0.0247
       15 O3     2pz        0.0000   -0.0000   -0.0000   -0.0000    0.0000    0.0000    0.0000    0.3933    0.0000    0.0000
 
          Orbital           11        12        13        14    
          Energy           -0.5450   -0.5280   -0.0871    0.1120
          Occ. No.          2.0000    2.0000    0.0000    0.0000
 
        1 O1     1s         0.0000    0.0003   -0.0000    0.0152
        2 O1     2s         0.0000    0.0017   -0.0000    0.2246
        3 O1     2px        0.0000    0.6641   -0.0000   -0.0017
        4 O1     2py       -0.0000    0.0041   -0.0000   -0.7665
        5 O1     2pz       -0.7160    0.0000    0.6161    0.0000
        6 O2     1s        -0.0000    0.0016   -0.0000   -0.0835
        7 O2     2s        -0.0000    0.0191   -0.0000   -0.8667
        8 O2     2px        0.0000   -0.6973    0.0000   -0.0322
        9 O2     2py       -0.0000    0.0000    0.0000   -0.0000
       10 O2     2pz        0.0000   -0.0000   -0.7977    0.0000
       11 O3     1s        -0.0000    0.0003   -0.0000    0.0152
       12 O3     2s        -0.0000    0.0017   -0.0000    0.2246
       13 O3     2px       -0.0000    0.6641   -0.0000   -0.0017
       14 O3     2py       -0.0000   -0.0041    0.0000    0.7665
       15 O3     2pz        0.7160    0.0000    0.6161   -0.0000
--
 
 
++    Molecular charges:
      ------------------
 
      Mulliken charges per centre and basis function type
      ---------------------------------------------------
 
                O1      O2      O3    
      1s       2.0001  2.0000  2.0001
      2s       1.9205  1.6511  1.9205
      2px      1.9997  1.9990  1.9997
      2pz      1.4292  1.1415  1.4292
      2py      0.6865  1.1362  0.6865
      Total    8.0361  7.9278  8.0361
 
      N-E     -0.0361  0.0722 -0.0361
 
      Total electronic charge=   24.000000
 
      Total            charge=   -0.000000
--
 
 
  Input file to MOLDEN was generated!
 
 
++    Static properties:
      ------------------
 
 
      LoProp Charges per center
 

                   O1       O2       O3    
      Nuclear      8.0000   8.0000   8.0000
      Electronic  -8.0852  -7.8295  -8.0852
 
      Total       -0.0852   0.1705  -0.0852
--
 
 
++    Natural Bond Order analysis
      ---------------------------
      Based on LoProp computed density
      -------------------------------------------------------------------------------------
      Atom A       Atom B       Bond Order | Atom A       Atom B       Bond Order
        O1           O2             2.000  |   O2           O3             2.000
      -------------------------------------------------------------------------------------
      NBO located     12.000 core electrons.
      NBO located      3.971 lone pair electrons.
      NBO located      8.000 electrons involved in    2 bonds.
      The remaining    0.029 electrons are to be considered as diffuse
--
 
 
++    Molecular properties:
      ---------------------
 
      Charge (e):
                      =   -0.0000
      Dipole Moment (Debye):
      Origin of the operator (Ang)=    0.0000    0.0000    0.0000
                   X=  2.3903E-02               Y= -7.7169E-11               Z=  1.3952E-13           Total=  2.3903E-02
      Quadrupole Moment (Debye*Ang):
      Origin of the operator (Ang)=    0.0167    0.0000    0.0000
                  XX= -1.7464E+01              XY= -1.0821E-12              XZ= -1.9681E-11              YY= -1.7624E+01
                  YZ= -3.1041E-13              ZZ= -1.5873E+01
      In traceless form (Debye*Ang)
                  XX= -7.1602E-01              XY= -1.6231E-12              XZ= -2.9522E-11              YY= -9.5544E-01
                  YZ= -4.6561E-13              ZZ=  1.6715E+00
--
 
 
  Input file to MOLDEN was generated!
 
 ###############################################################################
 ###############################################################################
 ###                                                                         ###
 ###                                                                         ###
 ###    RunFile label nBas                                                   ###
 ###    was used       78 times                                              ###
 ###                                                                         ###
 ###                                                                         ###
 ###############################################################################
 ###############################################################################
forrtl: warning (528): IEEE_UNDERFLOW is signaling
--- Stop Module: scf at Sat Jan 25 14:11:20 2025 /rc=_RC_ALL_IS_WELL_ ---
*** files: ozone_177.75.LprOrb ozone_177.75.LoProp.molden ozone_177.75.scf.molden ozone_177.75.ScfOrb ozone_177.75.scf.h5 xmldump
    saved to directory /home/grierjones/DDCASPT2/ozone/ANO-RCC-MB/ozone_177.75

>>> COPY /tmp/ozone_177.75/ozone_177.75.scf.h5 /home/grierjones/DDCASPT2/ozone/ANO-RCC-MB/ozone_177.75/

*** symbolic link created: INPORB -> ozone_177.75.ScfOrb
--- Start Module: rasscf at Sat Jan 25 14:11:20 2025 ---
 
()()()()()()()()()()()()()()()()()()()()()()()()()()()()()()()()()()()()()()()()()()()()()()()()()()

                                              &RASSCF

                                   only a single process is used
                       available to each process: 2.0 GB of memory, 1 thread?
()()()()()()()()()()()()()()()()()()()()()()()()()()()()()()()()()()()()()()()()()()()()()()()()()()
 
 
 *************** WARNING ****************
 ###############################################################################
 ###############################################################################
 ###                                                                         ###
 ###                                                                         ###
 ###    Too many macro-iterations.                                           ###
 ###                                                                         ###
 ###                                                                         ###
 ###############################################################################
 ###############################################################################
 Too many macro-iterations requested.
 Reset to maximum, new MAXIT=     200
 ****************************************
 
 *************** WARNING ****************
 ###############################################################################
 ###############################################################################
 ###                                                                         ###
 ###                                                                         ###
 ###    Too many SX-iterations.                                              ###
 ###                                                                         ###
 ###                                                                         ###
 ###############################################################################
 ###############################################################################
 Too many SX-iterations requested.
 Reset to maximum, new ITMAX=     100
 ****************************************
 
      Header of the ONEINT file:
      --------------------------
      
      Integrals generated by seward 4.2.0  , Sat Jan 25 14:11:20 2025
 
 
      OrdInt status: non-squared
 
 
      Cartesian coordinates in Angstrom:
      -----------------------------------------------------
      No.  Label        X            Y            Z        
      -----------------------------------------------------
       1   O1         0.02509200   1.27775400   0.00000000
       2   O2         0.00000000   0.00000000   0.00000000
       3   O3         0.02509200  -1.27775400   0.00000000
      -----------------------------------------------------
      Nuclear repulsion energy =   66.25320450
 
++    Wave function specifications:
      -----------------------------
 
      Number of closed shell electrons          20
      Number of electrons in active shells       4
      Max number of holes in RAS1 space          0
      Max nr of electrons in RAS3 space          0
      Number of inactive orbitals               10
      Number of active orbitals                  3
      Number of secondary orbitals               2
      Spin quantum number                      0.0
      State symmetry                             1
--
 
++    Orbital specifications:
      -----------------------
 
      Symmetry species                           1
                                                 a
      Frozen orbitals                            0
      Inactive orbitals                         10
      Active orbitals                            3
      RAS1 orbitals                              0
      RAS2 orbitals                              3
      RAS3 orbitals                              0
      Secondary orbitals                         2
      Deleted orbitals                           0
      Number of basis functions                 15
--
 
++    CI expansion specifications:
      ----------------------------
 
      Number of CSFs                             6
      Number of determinants                     6
      Number of root(s) required                 1
      Root chosen for geometry opt.              1
      CI root used                               1
         
      highest root included in the CI            1
      max. size of the explicit Hamiltonian      6
--
 
++    Optimization specifications:
      ----------------------------
 
      RASSCF algorithm: Conventional
      Maximum number of macro iterations       200
      Maximum number of SX iterations          100
      Threshold for RASSCF energy            0.100E-07
      Threshold for max MO rotation          0.100E+00
      Threshold for max BLB element          0.100E-03
      Level shift parameter                  0.500E+00
      Make Quasi-Newton update
--
 
      The MO-coefficients are taken from the file:
      /home/grierjones/DDCASPT2/ozone/ANO-RCC-MB/ozone_177.50/ozone_177.50.RasOrb                                                     
      Title: RASSCF average (pseudo-natural) orbitals                                      
 
      Total molecular charge    0.00
 
      ************************************************************************************************************************
      *                                                                                                                      *
      *                                            Wave function control section                                             *
      *                                                                                                                      *
      ************************************************************************************************************************
 
 
                                         RASSCF iterations: Energy and convergence statistics
                                         ----------------------------------------------------
 
      Iter CI   SX   CI       RASSCF       Energy    max ROT     max BLB   max BLB  Level Ln srch  Step   QN   Walltime
          iter iter root      energy       change     param      element    value   shift minimum  type update hh:mm:ss
 Nr of preliminary CI iterations:   1
        1   1    3    1  -224.27269696    0.00E+00   0.71E-03    9  15 1  0.18E-02*  0.24   0.00    SX    NO    0:00:00
        2   1    3    1  -224.27270132   -0.44E-05*  0.42E-03    7  14 1 -0.10E-02*  0.24   0.00    SX    NO    0:00:00
        3   1    3    1  -224.27270260   -0.13E-05*  0.24E-03    7  14 1 -0.58E-03*  0.24   0.00    SX    NO    0:00:00
        4   1    3    1  -224.27270301   -0.41E-06* -0.15E-03    7  14 1 -0.33E-03*  0.24   0.00    SX    NO    0:00:00
        5   1    3    1  -224.27270314   -0.14E-06*  0.21E-03    7  14 1 -0.18E-03*  0.24   2.44    LS   YES    0:00:00
        6   1    2    1  -224.27270322   -0.78E-07* -0.50E-04    9  15 1 -0.72E-04   0.24   1.04    QN   YES    0:00:00
        7   1    2    1  -224.27270323   -0.82E-08  -0.13E-03    9  15 1 -0.48E-04   0.24   2.50    QN   YES    0:00:00
      Convergence after  7 iterations
 
  Dmat in MO in SXCTL bf call to SXHAM                                                                                    
  mat. size =     3x    3
 
        1.9802670280244556
       -0.0000000000025858      1.7162557283274635
        0.0001814517262438     -0.0000000000045506      0.3034772436480802
        8   1    2    1  -224.27270324   -0.10E-07* -0.13E-03    8  15 1  0.17E-04   0.24   2.50    QN   YES    0:00:00
 
      ************************************************************************************************************************
                                                      Wave function printout:
                       occupation of active orbitals, and spin coupling of open shells (u,d: Spin up or down)
      ************************************************************************************************************************
 
      Note: transformation to natural orbitals
      has been made, which may change the order of the CSFs.
 
      printout of CI-coefficients larger than  0.05 for root  1
      energy=    -224.272703
      conf/sym  111     Coeff  Weight
             1  220  -0.92101 0.84826
             3  202   0.37666 0.14187
             6  022   0.09933 0.00987
 
      Natural orbitals and occupation numbers for root  1
      sym 1:   1.980267   1.716256   0.303477
 
      ************************************************************************************************************************
      *                                                                                                                      *
      *                                                    Final results                                                     *
      *                                                                                                                      *
      ************************************************************************************************************************
 
 
++    Wave function specifications:
      -----------------------------
 
      Number of closed shell electrons          20
      Number of electrons in active shells       4
      Max number of holes in RAS1 space          0
      Max nr of electrons in RAS3 space          0
      Number of inactive orbitals               10
      Number of active orbitals                  3
      Number of secondary orbitals               2
      Spin quantum number                      0.0
      State symmetry                             1
--
 
++    Orbital specifications:
      -----------------------
 
      Symmetry species                           1
                                                 a
      Frozen orbitals                            0
      Inactive orbitals                         10
      Active orbitals                            3
      RAS1 orbitals                              0
      RAS2 orbitals                              3
      RAS3 orbitals                              0
      Secondary orbitals                         2
      Deleted orbitals                           0
      Number of basis functions                 15
--
 
++    CI expansion specifications:
      ----------------------------
 
      Number of CSFs                             6
      Number of determinants                     6
      Number of root(s) required                 1
      CI root used                               1
      highest root included in the CI            1
      Root passed to geometry opt.               1
--
 
++    Final optimization conditions:
      ------------------------------
 
      Average CI energy                            -224.27270324
      RASSCF energy for state  1                   -224.27270324
      Super-CI energy                                -0.00000000
      RASSCF energy change                           -0.00000001
      Max change in MO coefficients              -0.121E-03
      Max non-diagonal density matrix element    -0.135E-03
      Maximum BLB matrix element                  0.171E-04
      (orbital pair   8,  15 in symmetry   1)
      Norm of electronic gradient            0.207E-04
--
 
 
      Final state energy(ies):
      ------------------------
 
::    RASSCF root number  1 Total energy:   -224.27270324
 
++    Molecular orbitals:
      -------------------
 
      Pseudonatural active orbitals and approximate occupation numbers
 
 
 
 
      Molecular orbitals for symmetry species 1: a  
 
 
      Orbital                1         2         3         4         5         6         7         8         9        10
      Energy          -20.8547  -20.8547  -20.8529   -1.7099   -1.5023   -1.0942   -0.8416   -0.7932   -0.6777   -0.5111
      Occ. No.          2.0000    2.0000    2.0000    2.0000    2.0000    2.0000    2.0000    2.0000    2.0000    2.0000
 
    1 O1     1s        -0.7071    0.6980    0.1134   -0.0141    0.0146    0.0144   -0.0006   -0.0262    0.0008    0.0002
    2 O1     2s        -0.0001   -0.0001    0.0003    0.3560   -0.5573    0.6368   -0.0096   -0.4229    0.0121    0.0004
    3 O1     2px        0.0000   -0.0000    0.0000   -0.0023    0.0014    0.0054    0.3841   -0.0288   -0.7153    0.6219
    4 O1     2py        0.0012   -0.0011   -0.0003   -0.1104    0.1005    0.1912   -0.0142   -0.4549    0.0282    0.0091
    5 O1     2pz       -0.0000    0.0000    0.0000   -0.0000    0.0000    0.0000    0.0000   -0.0000   -0.0000    0.0000
    6 O2     1s        -0.0000    0.1601   -0.9871   -0.0265   -0.0000   -0.0093   -0.0003   -0.0000   -0.0000    0.0021
    7 O2     2s         0.0000   -0.0008   -0.0009    0.6118    0.0000   -0.6189   -0.0063   -0.0000   -0.0000    0.0261
    8 O2     2px       -0.0000    0.0000   -0.0001    0.0080    0.0000    0.0055    0.6886    0.0000    0.0000   -0.7870
    9 O2     2py        0.0006    0.0000    0.0000    0.0000   -0.3200   -0.0000    0.0000    0.5604   -0.0185    0.0000
   10 O2     2pz       -0.0000    0.0000    0.0000   -0.0000   -0.0000   -0.0000   -0.0000    0.0000    0.0000   -0.0000
   11 O3     1s         0.7071    0.6980    0.1134   -0.0141   -0.0146    0.0144   -0.0006    0.0262   -0.0008    0.0002
   12 O3     2s         0.0001   -0.0001    0.0003    0.3560    0.5573    0.6368   -0.0096    0.4229   -0.0121    0.0004
   13 O3     2px       -0.0000   -0.0000    0.0000   -0.0023   -0.0014    0.0054    0.3841    0.0288    0.7153    0.6219
   14 O3     2py        0.0012    0.0011    0.0003    0.1104    0.1005   -0.1912    0.0142   -0.4549    0.0282   -0.0091
   15 O3     2pz       -0.0000   -0.0000   -0.0000   -0.0000   -0.0000    0.0000    0.0000    0.0000   -0.0000   -0.0000
 
 
      Orbital               11        12        13        14        15
      Energy            0.0000    0.0000    0.0000    0.1044    0.5855
      Occ. No.          1.9803    1.7163    0.3035    0.0000    0.0000
 
    1 O1     1s        -0.0000    0.0000   -0.0000   -0.0160   -0.0564
    2 O1     2s         0.0000    0.0000   -0.0000   -0.2402   -0.5133
    3 O1     2px        0.0000    0.0000   -0.0000   -0.0007    0.0166
    4 O1     2py        0.0000   -0.0000    0.0000    0.7585    0.6805
    5 O1     2pz        0.3057   -0.7160    0.6640   -0.0000   -0.0000
    6 O2     1s         0.0000   -0.0000    0.0000    0.0832   -0.0000
    7 O2     2s         0.0000   -0.0000    0.0000    0.8991    0.0000
    8 O2     2px       -0.0000   -0.0000    0.0000    0.0380   -0.0000
    9 O2     2py       -0.0000   -0.0000    0.0000   -0.0000    1.1289
   10 O2     2pz        0.7795    0.0000   -0.6980    0.0000    0.0000
   11 O3     1s        -0.0000   -0.0000    0.0000   -0.0160    0.0564
   12 O3     2s        -0.0000    0.0000   -0.0000   -0.2402    0.5133
   13 O3     2px       -0.0000    0.0000   -0.0000   -0.0007   -0.0166
   14 O3     2py        0.0000    0.0000   -0.0000   -0.7585    0.6805
   15 O3     2pz        0.3057    0.7160    0.6640    0.0000   -0.0000
--
 
      Von Neumann Entropy (Root  1) =  0.61636
 

      Mulliken population analysis for root number:  1
      -----------------------------------------------
 
 
++    Molecular charges:
      ------------------
 
      Mulliken charges per centre and basis function type
      ---------------------------------------------------
 
                O1      O2      O3    
      1s       2.0001  2.0001  2.0001
      2s       1.9135  1.5848  1.9135
      2px      1.9998  1.9984  1.9998
      2pz      1.2546  1.4908  1.2546
      2py      0.7834  1.0233  0.7834
      Total    7.9513  8.0973  7.9513
 
      N-E      0.0487 -0.0973  0.0487
 
      Total electronic charge=   24.000000
 
      Total            charge=   -0.000000
--
 
 

      Expectation values of various properties for root number:  1
      -----------------------------------------------------------
 
 
++    Molecular properties:
      ---------------------
 
      Charge (e):
                      =   -0.0000
      Dipole Moment (Debye):
      Origin of the operator (Ang)=    0.0000    0.0000    0.0000
                   X=  5.9744E-02               Y= -4.7927E-12               Z= -4.7916E-13           Total=  5.9744E-02
      Quadrupole Moment (Debye*Ang):
      Origin of the operator (Ang)=    0.0167    0.0000    0.0000
                  XX= -1.7413E+01              XY= -4.9226E-13              XZ= -2.1249E-13              YY= -1.6599E+01
                  YZ= -4.7510E-14              ZZ= -1.5684E+01
      In traceless form (Debye*Ang)
                  XX= -1.2709E+00              XY= -7.3839E-13              XZ= -3.1874E-13              YY= -5.0765E-02
                  YZ= -7.1264E-14              ZZ=  1.3216E+00
--
 

      LoProp population analysis for root number:  1
      -----------------------------------------------
 
 
++    LoProp analysis:
      ----------------
 
 
 
  Input file to MOLDEN was generated!
 
 
++    Static properties:
      ------------------
 
 
      LoProp Charges per center
 

                   O1       O2       O3    
      Nuclear      8.0000   8.0000   8.0000
      Electronic  -7.9904  -8.0192  -7.9904
 
      Total        0.0096  -0.0192   0.0096
--
 
 
      Natural Bond Order analysis for root number:  1
 
++    Natural Bond Order analysis
      ---------------------------
      Based on LoProp computed density
      -------------------------------------------------------------------------------------
      Atom A       Atom B       Bond Order | Atom A       Atom B       Bond Order
        O1           O2             1.962  |   O2           O3             1.962
      -------------------------------------------------------------------------------------
      NBO located     12.000 core electrons.
      NBO located      3.972 lone pair electrons.
      NBO located      7.849 electrons involved in    2 bonds.
      The remaining    0.179 electrons are to be considered as diffuse
--
 
--
 
 
  Input file to MOLDEN was generated!
 
      Average orbitals are written to the RASORB file
      Natural orbitals for root   1 are written to the RASORB.1 file
      Spin density orbitals for root   1 are written to the SPDORB.1 file
 
forrtl: warning (525): IEEE_DIVIDE_BY_ZERO is signaling
forrtl: warning (526): IEEE_INVALID is signaling
forrtl: warning (528): IEEE_UNDERFLOW is signaling
--- Stop Module: rasscf at Sat Jan 25 14:11:21 2025 /rc=_RC_ALL_IS_WELL_ ---
*** files: ozone_177.75.LprOrb ozone_177.75.rasscf.molden ozone_177.75.LoProp.molden ozone_177.75.RasOrb ozone_177.75.RasOrb.1 ozone_177.75.rasscf.h5 ozone_177.75.SpdOrb.1 xmldump
    saved to directory /home/grierjones/DDCASPT2/ozone/ANO-RCC-MB/ozone_177.75

>>> COPY /tmp/ozone_177.75/ozone_177.75.rasscf.h5 /home/grierjones/DDCASPT2/ozone/ANO-RCC-MB/ozone_177.75/

>>> COPY /tmp/ozone_177.75/GMJ_Fock_MO.csv /home/grierjones/DDCASPT2/ozone/ANO-RCC-MB/ozone_177.75/ozone_177.75.GMJ_Fock_MO.csv

>>> COPY /tmp/ozone_177.75/GMJ_PT2_Fock_MO.csv /home/grierjones/DDCASPT2/ozone/ANO-RCC-MB/ozone_177.75/ozone_177.75.GMJ_PT2_Fock_MO.csv

*** symbolic link created: INPORB -> ozone_177.75.RasOrb
--- Start Module: motra at Sat Jan 25 14:11:21 2025 ---
 
()()()()()()()()()()()()()()()()()()()()()()()()()()()()()()()()()()()()()()()()()()()()()()()()()()

                                               &MOTRA

                                   only a single process is used
                       available to each process: 2.0 GB of memory, 1 thread?
()()()()()()()()()()()()()()()()()()()()()()()()()()()()()()()()()()()()()()()()()()()()()()()()()()
 
 
      *** WARNING: Default frozen orbitals is overwritten by user input.
      *** Default values:   3
 
      Header of the integral files:
      
       Integrals generated by seward 4.2.0  , Sat Jan 25 14:11:20 2025
 
 
      Header of MO coefficients source file:
      * RASSCF average (pseudo-natural) orbitals                                      
 
 
      Cartesian coordinates in Angstrom:
      -----------------------------------------------------
      No.  Label        X            Y            Z        
      -----------------------------------------------------
       1   O1         0.02509200   1.27775400   0.00000000
       2   O2         0.00000000   0.00000000   0.00000000
       3   O3         0.02509200  -1.27775400   0.00000000
      -----------------------------------------------------
      Nuclear repulsion energy =   66.25320450
 
      Orbital specifications:
      -----------------------
 
      Symmetry species:              1
      Number of basis functions:    15
      Frozen orbitals:               0
      Deleted orbitals:              0
      Number of orbitals used:      15

       SYMMETRY  BASIS FUNCTIONS       ORBITALS      INTEGRALS   CPU(SEC)  I/O(SEC)
 
        1 1 1 1   15  15  15  15    15  15  15  15        7260       0.00      0.00

       TOTAL CPU TIME(SEC)    0.00TOTAL I/O TIME(SEC)    0.01
 
--- Stop Module: motra at Sat Jan 25 14:11:21 2025 /rc=_RC_ALL_IS_WELL_ ---
*** files: xmldump
    saved to directory /home/grierjones/DDCASPT2/ozone/ANO-RCC-MB/ozone_177.75

>>> COPY /tmp/ozone_177.75/GMJ_one_int_indx.csv /home/grierjones/DDCASPT2/ozone/ANO-RCC-MB/ozone_177.75/ozone_177.75.GMJ_one_int_indx.csv

>>> COPY /tmp/ozone_177.75/GMJ_one_int.csv /home/grierjones/DDCASPT2/ozone/ANO-RCC-MB/ozone_177.75/ozone_177.75.GMJ_one_int.csv

>>> COPY /tmp/ozone_177.75/GMJ_two_int_indx.csv /home/grierjones/DDCASPT2/ozone/ANO-RCC-MB/ozone_177.75/ozone_177.75.GMJ_two_int_indx.csv

>>> COPY /tmp/ozone_177.75/GMJ_two_int.csv /home/grierjones/DDCASPT2/ozone/ANO-RCC-MB/ozone_177.75/ozone_177.75.GMJ_two_int.csv

*** symbolic link created: INPORB -> ozone_177.75.RasOrb
--- Start Module: caspt2 at Sat Jan 25 14:11:21 2025 ---
 
()()()()()()()()()()()()()()()()()()()()()()()()()()()()()()()()()()()()()()()()()()()()()()()()()()

                                              &CASPT2

                                   only a single process is used
                       available to each process: 2.0 GB of memory, 1 thread?
()()()()()()()()()()()()()()()()()()()()()()()()()()()()()()()()()()()()()()()()()()()()()()()()()()
 
 Cholesky algorithm in CASPT2 =    1
 
 ###############################################################################
 ###############################################################################
 ###                                                                         ###
 ###                                                                         ###
 ###    User changed nr of frozen orbitals.                                  ###
 ###                                                                         ###
 ###                                                                         ###
 ###############################################################################
 ###############################################################################
 
++    Wave function specifications:
      -----------------------------
 
      Number of closed shell electrons          20
      Number of electrons in active shells       4
      Max number of holes in RAS1 space          0
      Max number of electrons in RAS3 space      0
      Number of inactive orbitals               10
      Number of active orbitals                  3
      Number of secondary orbitals               2
      Spin quantum number                      0.0
      State symmetry                             1
      Number of CSFs                             6
      Number of root(s) available                1
      Root passed to geometry opt.               1
      A file JOBMIX will be created.
      This is a CASSCF or RASSCF reference function
--
 
++    Orbital specifications:
      -----------------------
 
      Symmetry species                           1
                                                 a
      Frozen orbitals                            0
      Inactive orbitals                         10
      Active orbitals                            3
      Secondary orbitals                         2
      Deleted orbitals                           0
      Number of basis functions                 15
--
 
      Type of Fock operator: STANDARD
      Type of 0-order Hamiltonian: STANDARD WITH DEFAULT IPEA
        "IP-EA" denominator shift =      0.25
      The input orbitals and the CI vector will be transformed.
 
--------------------------------------------------------------------------------
 Estimated memory requirements:
  POLY3 :                   250202
  RHS:                      251368
  SIGMA :                   251440
  PRPCTL:                        0
 Available workspace:    230399382
 
++ CASPT2 computation for group   1
 
********************************************************************************
 Multi-State initialization phase begins for group   1
--------------------------------------------------------------------------------
********************************************************************************
 Compute H0 matrices for state    1
--------------------------------------------------------------------------------
--------------------------------------------------------------------------------
 H0 matrices have been computed.
 
********************************************************************************
  CASPT2 EQUATION SOLUTION
--------------------------------------------------------------------------------
 
  Total nr of CASPT2 parameters:
   Before reduction:        2100
   After  reduction:        1232
-------------------------------------------------------------------------------------------------------------------
 
  FINAL CASPT2 RESULT:
 
  Correlation energy /Case, /Symm, and sums:
 VJTU     -0.00000000 -0.00000000
 VJTIP    -0.00124212 -0.00124212
 VJTIM     0.00000000  0.00000000
 ATVX     -0.00000000 -0.00000000
 AIVX     -0.05246213 -0.05246213
 VJAIP    -0.00000000 -0.00000000
 VJAIM    -0.00000000 -0.00000000
 BVATP    -0.00061704 -0.00061704
 BVATM    -0.00000459 -0.00000459
 BJATP    -0.00000000 -0.00000000
 BJATM    -0.00000000 -0.00000000
 BJAIP    -0.03471170 -0.03471170
 BJAIM    -0.00642900 -0.00642900
 Summed:  -0.09546658 -0.09546658
 
      Reference energy:        -224.2727032413
      E2 (Non-variational):      -0.0954665782
      E2 (Variational):          -0.0954665933
      Total energy:            -224.3681698346
      Residual norm:              0.0000006569
      Reference weight:           0.95392
 
      Contributions to the CASPT2 correlation energy
      Active & Virtual Only:         -0.0006216262
      One Inactive Excited:          -0.0524621294
      Two Inactive Excited:          -0.0423828226
 
 
++ Denominators, etc.
----------------------------------------------------------------------------------------------------
 Report on small energy denominators, large coefficients, and large energy contributions.
CASE  SYMM ACTIVE-MIX  NON-ACTIVE INDICES          DENOMINATOR     RHS VALUE       COEFFICIENT     CONTRIBUTION
AIVX     1  Mu1.0005  In1.004 Se1.014               2.54769581     -0.08499768      0.03336257     -0.00283574
AIVX     1  Mu1.0003  In1.005 Se1.014               2.01593119      0.05490130     -0.02723372     -0.00149517
AIVX     1  Mu1.0004  In1.006 Se1.014               1.77903397     -0.07809501      0.04389743     -0.00342817
AIVX     1  Mu1.0005  In1.006 Se1.014               1.93199790      0.07558451     -0.03912246     -0.00295705
AIVX     1  Mu1.0002  In1.008 Se1.014               1.21246519     -0.12468670      0.10283735     -0.01282245
AIVX     1  Mu1.0003  In1.008 Se1.014               1.30683792     -0.07459979      0.05708420     -0.00425847
AIVX     1  Mu1.0007  In1.008 Se1.014               1.90906082      0.05538827     -0.02901336     -0.00160700
AIVX     1  Mu1.0004  In1.005 Se1.015               2.66827544     -0.07246690      0.02715870     -0.00196811
AIVX     1  Mu1.0001  In1.008 Se1.015               1.31947753      0.03567975     -0.02704082     -0.00096481
AIVX     1  Mu1.0004  In1.008 Se1.015               1.95918218      0.12832763     -0.06550061     -0.00840554
AIVX     1  Mu1.0005  In1.008 Se1.015               2.11214611     -0.08546600      0.04046406     -0.00345830
BJAIP    1  Se1.014 In1.004 Se1.015 In1.005         3.90218646     -0.10122083      0.02593952     -0.00262562
BJAIP    1  Se1.014 In1.006 Se1.014 In1.006         2.39724708      0.08442076     -0.03521571     -0.00297294
BJAIP    1  Se1.014 In1.004 Se1.015 In1.008         3.19309320      0.08262590     -0.02587644     -0.00213806
BJAIP    1  Se1.014 In1.006 Se1.015 In1.008         2.57739528     -0.10090964      0.03915179     -0.00395079
BJAIP    1  Se1.014 In1.008 Se1.014 In1.008         1.79530286      0.11549261     -0.06433043     -0.00742969
BJAIP    1  Se1.015 In1.008 Se1.015 In1.008         2.75754349      0.11373167     -0.04124383     -0.00469073
BJAIP    1  Se1.014 In1.010 Se1.014 In1.010         1.23111534      0.03236433     -0.02628862     -0.00085081
BJAIM    1  Se1.014 In1.006 Se1.014 In1.008         2.57739528     -0.10334639      0.04009722     -0.00414390
--
 
   (Skipping property calculation,
    use PROP keyword to activate)
--
 
  Total CASPT2 energies:
::    CASPT2 Root  1     Total energy:   -224.36816983
 
  A NEW JOBIPH FILE NAMED 'JOBMIX' IS PREPARED.
********************************************************************************
forrtl: warning (528): IEEE_UNDERFLOW is signaling
--- Stop Module: caspt2 at Sat Jan 25 14:11:21 2025 /rc=_RC_ALL_IS_WELL_ ---
*** files: xmldump
    saved to directory /home/grierjones/DDCASPT2/ozone/ANO-RCC-MB/ozone_177.75

>>> EXPORT i = B

>>> EXPORT j = P

>>> IF (-FILE GMJ_e2_${i}_${j}.csv)

>>> COPY /tmp/ozone_177.75/GMJ_RHS_B_P.csv /home/grierjones/DDCASPT2/ozone/ANO-RCC-MB/ozone_177.75/GMJ_RHS_B_P.csv

>>> COPY /tmp/ozone_177.75/GMJ_IVECW_B_P.csv /home/grierjones/DDCASPT2/ozone/ANO-RCC-MB/ozone_177.75/GMJ_IVECW_B_P.csv

>>> COPY /tmp/ozone_177.75/GMJ_IVECX_B_P.csv /home/grierjones/DDCASPT2/ozone/ANO-RCC-MB/ozone_177.75/GMJ_IVECX_B_P.csv

>>> COPY /tmp/ozone_177.75/GMJ_IVECC2_B_P.csv /home/grierjones/DDCASPT2/ozone/ANO-RCC-MB/ozone_177.75/GMJ_IVECC2_B_P.csv

>>> COPY /tmp/ozone_177.75/GMJ_e2_B_P.csv /home/grierjones/DDCASPT2/ozone/ANO-RCC-MB/ozone_177.75/GMJ_e2_B_P.csv

>>> END FOREACH

>>> EXPORT j = M

>>> IF (-FILE GMJ_e2_${i}_${j}.csv)
(Skipped)

>>> END FOREACH

>>> END FOREACH

>>> EXPORT i = E

>>> EXPORT j = P

>>> IF (-FILE GMJ_e2_${i}_${j}.csv)

>>> COPY /tmp/ozone_177.75/GMJ_RHS_E_P.csv /home/grierjones/DDCASPT2/ozone/ANO-RCC-MB/ozone_177.75/GMJ_RHS_E_P.csv

>>> COPY /tmp/ozone_177.75/GMJ_IVECW_E_P.csv /home/grierjones/DDCASPT2/ozone/ANO-RCC-MB/ozone_177.75/GMJ_IVECW_E_P.csv

>>> COPY /tmp/ozone_177.75/GMJ_IVECX_E_P.csv /home/grierjones/DDCASPT2/ozone/ANO-RCC-MB/ozone_177.75/GMJ_IVECX_E_P.csv

>>> COPY /tmp/ozone_177.75/GMJ_IVECC2_E_P.csv /home/grierjones/DDCASPT2/ozone/ANO-RCC-MB/ozone_177.75/GMJ_IVECC2_E_P.csv

>>> COPY /tmp/ozone_177.75/GMJ_e2_E_P.csv /home/grierjones/DDCASPT2/ozone/ANO-RCC-MB/ozone_177.75/GMJ_e2_E_P.csv

>>> END FOREACH

>>> EXPORT j = M

>>> IF (-FILE GMJ_e2_${i}_${j}.csv)

>>> COPY /tmp/ozone_177.75/GMJ_RHS_E_M.csv /home/grierjones/DDCASPT2/ozone/ANO-RCC-MB/ozone_177.75/GMJ_RHS_E_M.csv

>>> COPY /tmp/ozone_177.75/GMJ_IVECW_E_M.csv /home/grierjones/DDCASPT2/ozone/ANO-RCC-MB/ozone_177.75/GMJ_IVECW_E_M.csv

>>> COPY /tmp/ozone_177.75/GMJ_IVECX_E_M.csv /home/grierjones/DDCASPT2/ozone/ANO-RCC-MB/ozone_177.75/GMJ_IVECX_E_M.csv

>>> COPY /tmp/ozone_177.75/GMJ_IVECC2_E_M.csv /home/grierjones/DDCASPT2/ozone/ANO-RCC-MB/ozone_177.75/GMJ_IVECC2_E_M.csv

>>> COPY /tmp/ozone_177.75/GMJ_e2_E_M.csv /home/grierjones/DDCASPT2/ozone/ANO-RCC-MB/ozone_177.75/GMJ_e2_E_M.csv

>>> END FOREACH

>>> END FOREACH

>>> EXPORT i = F

>>> EXPORT j = P

>>> IF (-FILE GMJ_e2_${i}_${j}.csv)

>>> COPY /tmp/ozone_177.75/GMJ_RHS_F_P.csv /home/grierjones/DDCASPT2/ozone/ANO-RCC-MB/ozone_177.75/GMJ_RHS_F_P.csv

>>> COPY /tmp/ozone_177.75/GMJ_IVECW_F_P.csv /home/grierjones/DDCASPT2/ozone/ANO-RCC-MB/ozone_177.75/GMJ_IVECW_F_P.csv

>>> COPY /tmp/ozone_177.75/GMJ_IVECX_F_P.csv /home/grierjones/DDCASPT2/ozone/ANO-RCC-MB/ozone_177.75/GMJ_IVECX_F_P.csv

>>> COPY /tmp/ozone_177.75/GMJ_IVECC2_F_P.csv /home/grierjones/DDCASPT2/ozone/ANO-RCC-MB/ozone_177.75/GMJ_IVECC2_F_P.csv

>>> COPY /tmp/ozone_177.75/GMJ_e2_F_P.csv /home/grierjones/DDCASPT2/ozone/ANO-RCC-MB/ozone_177.75/GMJ_e2_F_P.csv

>>> END FOREACH

>>> EXPORT j = M

>>> IF (-FILE GMJ_e2_${i}_${j}.csv)

>>> COPY /tmp/ozone_177.75/GMJ_RHS_F_M.csv /home/grierjones/DDCASPT2/ozone/ANO-RCC-MB/ozone_177.75/GMJ_RHS_F_M.csv

>>> COPY /tmp/ozone_177.75/GMJ_IVECW_F_M.csv /home/grierjones/DDCASPT2/ozone/ANO-RCC-MB/ozone_177.75/GMJ_IVECW_F_M.csv

>>> COPY /tmp/ozone_177.75/GMJ_IVECX_F_M.csv /home/grierjones/DDCASPT2/ozone/ANO-RCC-MB/ozone_177.75/GMJ_IVECX_F_M.csv

>>> COPY /tmp/ozone_177.75/GMJ_IVECC2_F_M.csv /home/grierjones/DDCASPT2/ozone/ANO-RCC-MB/ozone_177.75/GMJ_IVECC2_F_M.csv

>>> COPY /tmp/ozone_177.75/GMJ_e2_F_M.csv /home/grierjones/DDCASPT2/ozone/ANO-RCC-MB/ozone_177.75/GMJ_e2_F_M.csv

>>> END FOREACH

>>> END FOREACH

>>> EXPORT i = G

>>> EXPORT j = P

>>> IF (-FILE GMJ_e2_${i}_${j}.csv)

>>> COPY /tmp/ozone_177.75/GMJ_RHS_G_P.csv /home/grierjones/DDCASPT2/ozone/ANO-RCC-MB/ozone_177.75/GMJ_RHS_G_P.csv

>>> COPY /tmp/ozone_177.75/GMJ_IVECW_G_P.csv /home/grierjones/DDCASPT2/ozone/ANO-RCC-MB/ozone_177.75/GMJ_IVECW_G_P.csv

>>> COPY /tmp/ozone_177.75/GMJ_IVECX_G_P.csv /home/grierjones/DDCASPT2/ozone/ANO-RCC-MB/ozone_177.75/GMJ_IVECX_G_P.csv

>>> COPY /tmp/ozone_177.75/GMJ_IVECC2_G_P.csv /home/grierjones/DDCASPT2/ozone/ANO-RCC-MB/ozone_177.75/GMJ_IVECC2_G_P.csv

>>> COPY /tmp/ozone_177.75/GMJ_e2_G_P.csv /home/grierjones/DDCASPT2/ozone/ANO-RCC-MB/ozone_177.75/GMJ_e2_G_P.csv

>>> END FOREACH

>>> EXPORT j = M

>>> IF (-FILE GMJ_e2_${i}_${j}.csv)

>>> COPY /tmp/ozone_177.75/GMJ_RHS_G_M.csv /home/grierjones/DDCASPT2/ozone/ANO-RCC-MB/ozone_177.75/GMJ_RHS_G_M.csv

>>> COPY /tmp/ozone_177.75/GMJ_IVECW_G_M.csv /home/grierjones/DDCASPT2/ozone/ANO-RCC-MB/ozone_177.75/GMJ_IVECW_G_M.csv

>>> COPY /tmp/ozone_177.75/GMJ_IVECX_G_M.csv /home/grierjones/DDCASPT2/ozone/ANO-RCC-MB/ozone_177.75/GMJ_IVECX_G_M.csv

>>> COPY /tmp/ozone_177.75/GMJ_IVECC2_G_M.csv /home/grierjones/DDCASPT2/ozone/ANO-RCC-MB/ozone_177.75/GMJ_IVECC2_G_M.csv

>>> COPY /tmp/ozone_177.75/GMJ_e2_G_M.csv /home/grierjones/DDCASPT2/ozone/ANO-RCC-MB/ozone_177.75/GMJ_e2_G_M.csv

>>> END FOREACH

>>> END FOREACH

>>> EXPORT i = H

>>> EXPORT j = P

>>> IF (-FILE GMJ_e2_${i}_${j}.csv)

>>> COPY /tmp/ozone_177.75/GMJ_RHS_H_P.csv /home/grierjones/DDCASPT2/ozone/ANO-RCC-MB/ozone_177.75/GMJ_RHS_H_P.csv

>>> COPY /tmp/ozone_177.75/GMJ_IVECW_H_P.csv /home/grierjones/DDCASPT2/ozone/ANO-RCC-MB/ozone_177.75/GMJ_IVECW_H_P.csv

>>> COPY /tmp/ozone_177.75/GMJ_IVECX_H_P.csv /home/grierjones/DDCASPT2/ozone/ANO-RCC-MB/ozone_177.75/GMJ_IVECX_H_P.csv

>>> COPY /tmp/ozone_177.75/GMJ_IVECC2_H_P.csv /home/grierjones/DDCASPT2/ozone/ANO-RCC-MB/ozone_177.75/GMJ_IVECC2_H_P.csv

>>> COPY /tmp/ozone_177.75/GMJ_e2_H_P.csv /home/grierjones/DDCASPT2/ozone/ANO-RCC-MB/ozone_177.75/GMJ_e2_H_P.csv

>>> END FOREACH

>>> EXPORT j = M

>>> IF (-FILE GMJ_e2_${i}_${j}.csv)

>>> COPY /tmp/ozone_177.75/GMJ_RHS_H_M.csv /home/grierjones/DDCASPT2/ozone/ANO-RCC-MB/ozone_177.75/GMJ_RHS_H_M.csv

>>> COPY /tmp/ozone_177.75/GMJ_IVECW_H_M.csv /home/grierjones/DDCASPT2/ozone/ANO-RCC-MB/ozone_177.75/GMJ_IVECW_H_M.csv

>>> COPY /tmp/ozone_177.75/GMJ_IVECX_H_M.csv /home/grierjones/DDCASPT2/ozone/ANO-RCC-MB/ozone_177.75/GMJ_IVECX_H_M.csv

>>> COPY /tmp/ozone_177.75/GMJ_IVECC2_H_M.csv /home/grierjones/DDCASPT2/ozone/ANO-RCC-MB/ozone_177.75/GMJ_IVECC2_H_M.csv

>>> COPY /tmp/ozone_177.75/GMJ_e2_H_M.csv /home/grierjones/DDCASPT2/ozone/ANO-RCC-MB/ozone_177.75/GMJ_e2_H_M.csv

>>> END FOREACH

>>> END FOREACH

>>> EXPORT i = A

>>> IF (-FILE GMJ_e2_$i.csv)

>>> COPY /tmp/ozone_177.75/GMJ_RHS_A.csv /home/grierjones/DDCASPT2/ozone/ANO-RCC-MB/ozone_177.75/GMJ_RHS_A.csv

>>> COPY /tmp/ozone_177.75/GMJ_IVECW_A.csv /home/grierjones/DDCASPT2/ozone/ANO-RCC-MB/ozone_177.75/GMJ_IVECW_A.csv

>>> COPY /tmp/ozone_177.75/GMJ_IVECX_A.csv /home/grierjones/DDCASPT2/ozone/ANO-RCC-MB/ozone_177.75/GMJ_IVECX_A.csv

>>> COPY /tmp/ozone_177.75/GMJ_IVECC2_A.csv /home/grierjones/DDCASPT2/ozone/ANO-RCC-MB/ozone_177.75/GMJ_IVECC2_A.csv

>>> COPY /tmp/ozone_177.75/GMJ_e2_A.csv /home/grierjones/DDCASPT2/ozone/ANO-RCC-MB/ozone_177.75/GMJ_e2_A.csv

>>> END FOREACH

>>> EXPORT i = C

>>> IF (-FILE GMJ_e2_$i.csv)

>>> COPY /tmp/ozone_177.75/GMJ_RHS_C.csv /home/grierjones/DDCASPT2/ozone/ANO-RCC-MB/ozone_177.75/GMJ_RHS_C.csv

>>> COPY /tmp/ozone_177.75/GMJ_IVECW_C.csv /home/grierjones/DDCASPT2/ozone/ANO-RCC-MB/ozone_177.75/GMJ_IVECW_C.csv

>>> COPY /tmp/ozone_177.75/GMJ_IVECX_C.csv /home/grierjones/DDCASPT2/ozone/ANO-RCC-MB/ozone_177.75/GMJ_IVECX_C.csv

>>> COPY /tmp/ozone_177.75/GMJ_IVECC2_C.csv /home/grierjones/DDCASPT2/ozone/ANO-RCC-MB/ozone_177.75/GMJ_IVECC2_C.csv

>>> COPY /tmp/ozone_177.75/GMJ_e2_C.csv /home/grierjones/DDCASPT2/ozone/ANO-RCC-MB/ozone_177.75/GMJ_e2_C.csv

>>> END FOREACH

>>> EXPORT i = D

>>> IF (-FILE GMJ_e2_$i.csv)

>>> COPY /tmp/ozone_177.75/GMJ_RHS_D.csv /home/grierjones/DDCASPT2/ozone/ANO-RCC-MB/ozone_177.75/GMJ_RHS_D.csv

>>> COPY /tmp/ozone_177.75/GMJ_IVECW_D.csv /home/grierjones/DDCASPT2/ozone/ANO-RCC-MB/ozone_177.75/GMJ_IVECW_D.csv

>>> COPY /tmp/ozone_177.75/GMJ_IVECX_D.csv /home/grierjones/DDCASPT2/ozone/ANO-RCC-MB/ozone_177.75/GMJ_IVECX_D.csv

>>> COPY /tmp/ozone_177.75/GMJ_IVECC2_D.csv /home/grierjones/DDCASPT2/ozone/ANO-RCC-MB/ozone_177.75/GMJ_IVECC2_D.csv

>>> COPY /tmp/ozone_177.75/GMJ_e2_D.csv /home/grierjones/DDCASPT2/ozone/ANO-RCC-MB/ozone_177.75/GMJ_e2_D.csv

>>> END FOREACH

.########################.
.# Non-zero return code #.
.########################.

    Timing: Wall=1.08 User=0.82 System=0.25
********************************************
*** WorkDir at /tmp/ozone_177.75 cleaned ***
********************************************
