[Molden Format]
[N_Atoms]
                     2
[Atoms] (AU)
C1          1      6           0.00000000      0.00000000      0.00000000
C2          2      6           0.00000000      0.00000000      1.88972612
[Charge] (Mulliken)
  0.000000000000000E+000
  0.000000000000000E+000
[GTO] (AU)
   1
   s  14
  5.055750100E+04  1.128874000E-04
  7.524785600E+03  5.295373000E-04
  1.694327600E+03  2.450038300E-03
  4.728227900E+02  1.005398470E-02
  1.517107500E+02  3.545398060E-02
  5.391874600E+01  1.044071086E-01
  2.065931100E+01  2.412894918E-01
  8.383976000E+00  3.834225483E-01
  3.577015000E+00  3.078514393E-01
  1.547118000E+00  6.872442990E-02
  6.130130000E-01  2.224445000E-04
  2.460680000E-01  1.976748900E-03
  9.908700000E-02  2.057859400E-03
  3.468000000E-02  4.182020000E-04
   s  14
  5.055750100E+04 -2.507420000E-05
  7.524785600E+03 -1.175945000E-04
  1.694327600E+03 -5.456275000E-04
  4.728227900E+02 -2.245077100E-03
  1.517107500E+02 -8.043471800E-03
  5.391874600E+01 -2.442588710E-02
  2.065931100E+01 -6.136791180E-02
  8.383976000E+00 -1.177767835E-01
  3.577015000E+00 -1.550487783E-01
  1.547118000E+00 -1.933316860E-02
  6.130130000E-01  3.996930678E-01
  2.460680000E-01  5.589420949E-01
  9.908700000E-02  1.711195023E-01
  3.468000000E-02  7.456244600E-03
   p   9
  8.333315500E+01  1.344656000E-03
  1.955761100E+01  1.023555500E-02
  6.080365000E+00  4.520067100E-02
  2.179317000E+00  1.410756198E-01
  8.651500000E-01  3.047388085E-01
  3.619440000E-01  3.995281011E-01
  1.547400000E-01  2.719163432E-01
  6.542900000E-02  5.857669330E-02
  2.290000000E-02 -1.263813000E-04
 
   2
   s  14
  5.055750100E+04  1.128874000E-04
  7.524785600E+03  5.295373000E-04
  1.694327600E+03  2.450038300E-03
  4.728227900E+02  1.005398470E-02
  1.517107500E+02  3.545398060E-02
  5.391874600E+01  1.044071086E-01
  2.065931100E+01  2.412894918E-01
  8.383976000E+00  3.834225483E-01
  3.577015000E+00  3.078514393E-01
  1.547118000E+00  6.872442990E-02
  6.130130000E-01  2.224445000E-04
  2.460680000E-01  1.976748900E-03
  9.908700000E-02  2.057859400E-03
  3.468000000E-02  4.182020000E-04
   s  14
  5.055750100E+04 -2.507420000E-05
  7.524785600E+03 -1.175945000E-04
  1.694327600E+03 -5.456275000E-04
  4.728227900E+02 -2.245077100E-03
  1.517107500E+02 -8.043471800E-03
  5.391874600E+01 -2.442588710E-02
  2.065931100E+01 -6.136791180E-02
  8.383976000E+00 -1.177767835E-01
  3.577015000E+00 -1.550487783E-01
  1.547118000E+00 -1.933316860E-02
  6.130130000E-01  3.996930678E-01
  2.460680000E-01  5.589420949E-01
  9.908700000E-02  1.711195023E-01
  3.468000000E-02  7.456244600E-03
   p   9
  8.333315500E+01  1.344656000E-03
  1.955761100E+01  1.023555500E-02
  6.080365000E+00  4.520067100E-02
  2.179317000E+00  1.410756198E-01
  8.651500000E-01  3.047388085E-01
  3.619440000E-01  3.995281011E-01
  1.547400000E-01  2.719163432E-01
  6.542900000E-02  5.857669330E-02
  2.290000000E-02 -1.263813000E-04
 
[MO]
Sym=     1a  
Ene=   -11.3790
Spin= Alpha
Occup=    2.00000
   1         0.70477267
   2         0.00529559
   3        -0.00000000
   4         0.00000000
   5         0.00480816
   6         0.70477267
   7         0.00529559
   8        -0.00000000
   9        -0.00000000
  10        -0.00480816
Sym=     2a  
Ene=   -11.3190
Spin= Alpha
Occup=    2.00000
   1        -0.70675157
   2         0.00462962
   3        -0.00000000
   4        -0.00000000
   5         0.00461204
   6         0.70675157
   7        -0.00462962
   8         0.00000000
   9         0.00000000
  10         0.00461204
Sym=     3a  
Ene=    -1.2146
Spin= Alpha
Occup=    2.00000
   1        -0.08639831
   2         0.50720024
   3         0.00000000
   4        -0.00000000
   5         0.14192315
   6        -0.08639831
   7         0.50720024
   8         0.00000000
   9         0.00000000
  10        -0.14192315
Sym=     4a  
Ene=    -0.6456
Spin= Alpha
Occup=    2.00000
   1        -0.00000000
   2         0.00000000
   3         0.13120612
   4         0.56565410
   5        -0.00000000
   6         0.00000000
   7        -0.00000000
   8         0.13120612
   9         0.56565410
  10        -0.00000000
Sym=     5a  
Ene=    -0.6456
Spin= Alpha
Occup=    2.00000
   1        -0.00000000
   2         0.00000000
   3         0.56565410
   4        -0.13120612
   5        -0.00000000
   6         0.00000000
   7        -0.00000000
   8         0.56565410
   9        -0.13120612
  10        -0.00000000
Sym=     6a  
Ene=    -0.6207
Spin= Alpha
Occup=    2.00000
   1         0.02652670
   2        -0.48228054
   3         0.00000000
   4         0.00000000
   5         0.45510511
   6        -0.02652670
   7         0.48228054
   8         0.00000000
   9         0.00000000
  10         0.45510511
Sym=     7a  
Ene=    -0.3692
Spin= Alpha
Occup=    0.00000
   1         0.08865557
   2         0.32862064
   3         0.00000000
   4        -0.00000000
   5        -0.72292149
   6         0.08865557
   7         0.32862064
   8         0.00000000
   9         0.00000000
  10         0.72292149
Sym=     8a  
Ene=    -0.2251
Spin= Alpha
Occup=    0.00000
   1        -0.00000000
   2        -0.00000000
   3        -0.24564145
   4        -0.95214027
   5         0.00000000
   6         0.00000000
   7         0.00000000
   8         0.24564145
   9         0.95214027
  10        -0.00000000
Sym=     9a  
Ene=    -0.2251
Spin= Alpha
Occup=    0.00000
   1        -0.00000000
   2        -0.00000000
   3        -0.95214027
   4         0.24564145
   5        -0.00000000
   6         0.00000000
   7         0.00000000
   8         0.95214027
   9        -0.24564145
  10        -0.00000000
Sym=    10a  
Ene=    -0.0348
Spin= Alpha
Occup=    0.00000
   1         0.52888237
   2         2.44638305
   3        -0.00000000
   4        -0.00000000
   5         1.59920950
   6        -0.52888237
   7        -2.44638305
   8         0.00000000
   9         0.00000000
  10         1.59920950
