[Molden Format]
[N_Atoms]
                     2
[Atoms] (AU)
C1          1      6           0.00000000      0.00000000      0.00000000
C2          2      6           0.00000000      0.00000000      1.88972612
[Charge] (Mulliken)
  1.856292897173262E-013
 -1.874056465567264E-013
[GTO] (AU)
   1
   s  14
  5.055750100E+04  1.128874000E-04
  7.524785600E+03  5.295373000E-04
  1.694327600E+03  2.450038300E-03
  4.728227900E+02  1.005398470E-02
  1.517107500E+02  3.545398060E-02
  5.391874600E+01  1.044071086E-01
  2.065931100E+01  2.412894918E-01
  8.383976000E+00  3.834225483E-01
  3.577015000E+00  3.078514393E-01
  1.547118000E+00  6.872442990E-02
  6.130130000E-01  2.224445000E-04
  2.460680000E-01  1.976748900E-03
  9.908700000E-02  2.057859400E-03
  3.468000000E-02  4.182020000E-04
   s  14
  5.055750100E+04 -2.507420000E-05
  7.524785600E+03 -1.175945000E-04
  1.694327600E+03 -5.456275000E-04
  4.728227900E+02 -2.245077100E-03
  1.517107500E+02 -8.043471800E-03
  5.391874600E+01 -2.442588710E-02
  2.065931100E+01 -6.136791180E-02
  8.383976000E+00 -1.177767835E-01
  3.577015000E+00 -1.550487783E-01
  1.547118000E+00 -1.933316860E-02
  6.130130000E-01  3.996930678E-01
  2.460680000E-01  5.589420949E-01
  9.908700000E-02  1.711195023E-01
  3.468000000E-02  7.456244600E-03
   p   9
  8.333315500E+01  1.344656000E-03
  1.955761100E+01  1.023555500E-02
  6.080365000E+00  4.520067100E-02
  2.179317000E+00  1.410756198E-01
  8.651500000E-01  3.047388085E-01
  3.619440000E-01  3.995281011E-01
  1.547400000E-01  2.719163432E-01
  6.542900000E-02  5.857669330E-02
  2.290000000E-02 -1.263813000E-04
 
   2
   s  14
  5.055750100E+04  1.128874000E-04
  7.524785600E+03  5.295373000E-04
  1.694327600E+03  2.450038300E-03
  4.728227900E+02  1.005398470E-02
  1.517107500E+02  3.545398060E-02
  5.391874600E+01  1.044071086E-01
  2.065931100E+01  2.412894918E-01
  8.383976000E+00  3.834225483E-01
  3.577015000E+00  3.078514393E-01
  1.547118000E+00  6.872442990E-02
  6.130130000E-01  2.224445000E-04
  2.460680000E-01  1.976748900E-03
  9.908700000E-02  2.057859400E-03
  3.468000000E-02  4.182020000E-04
   s  14
  5.055750100E+04 -2.507420000E-05
  7.524785600E+03 -1.175945000E-04
  1.694327600E+03 -5.456275000E-04
  4.728227900E+02 -2.245077100E-03
  1.517107500E+02 -8.043471800E-03
  5.391874600E+01 -2.442588710E-02
  2.065931100E+01 -6.136791180E-02
  8.383976000E+00 -1.177767835E-01
  3.577015000E+00 -1.550487783E-01
  1.547118000E+00 -1.933316860E-02
  6.130130000E-01  3.996930678E-01
  2.460680000E-01  5.589420949E-01
  9.908700000E-02  1.711195023E-01
  3.468000000E-02  7.456244600E-03
   p   9
  8.333315500E+01  1.344656000E-03
  1.955761100E+01  1.023555500E-02
  6.080365000E+00  4.520067100E-02
  2.179317000E+00  1.410756198E-01
  8.651500000E-01  3.047388085E-01
  3.619440000E-01  3.995281011E-01
  1.547400000E-01  2.719163432E-01
  6.542900000E-02  5.857669330E-02
  2.290000000E-02 -1.263813000E-04
 
[MO]
Sym=     1a  
Ene=   -11.5200
Spin= Alpha
Occup=    1.00000
   1         0.70578012
   2        -0.00175734
   3         0.00000000
   4         0.00000000
   5         0.00357297
   6         0.70578012
   7        -0.00175734
   8        -0.00000000
   9        -0.00000000
  10        -0.00357297
Sym=     1a  
Ene=   -11.5200
Spin= Beta
Occup=    1.00000
   1         0.70578012
   2        -0.00175734
   3         0.00000000
   4         0.00000000
   5         0.00357297
   6         0.70578012
   7        -0.00175734
   8        -0.00000000
   9        -0.00000000
  10        -0.00357297
Sym=     2a  
Ene=   -11.5060
Spin= Alpha
Occup=    1.00000
   1        -0.70906584
   2        -0.00335499
   3         0.00000000
   4         0.00000000
   5        -0.00415180
   6         0.70906583
   7         0.00335499
   8         0.00000000
   9        -0.00000000
  10        -0.00415180
Sym=     2a  
Ene=   -11.5060
Spin= Beta
Occup=    1.00000
   1        -0.70906584
   2        -0.00335499
   3         0.00000000
   4         0.00000000
   5        -0.00415180
   6         0.70906583
   7         0.00335499
   8         0.00000000
   9        -0.00000000
  10        -0.00415180
Sym=     3a  
Ene=    -1.2223
Spin= Alpha
Occup=    1.00000
   1        -0.09278600
   2         0.43429543
   3        -0.00000000
   4         0.00000000
   5         0.27878050
   6        -0.09278600
   7         0.43429543
   8        -0.00000000
   9         0.00000000
  10        -0.27878050
Sym=     3a  
Ene=    -1.2223
Spin= Beta
Occup=    1.00000
   1        -0.09278600
   2         0.43429543
   3        -0.00000000
   4         0.00000000
   5         0.27878050
   6        -0.09278600
   7         0.43429543
   8        -0.00000000
   9         0.00000000
  10        -0.27878050
Sym=     4a  
Ene=    -0.5910
Spin= Alpha
Occup=    1.00000
   1        -0.00000000
   2        -0.00000000
   3         0.34056745
   4         0.47031204
   5        -0.00000000
   6         0.00000000
   7         0.00000000
   8         0.34056745
   9         0.47031204
  10        -0.00000000
Sym=     4a  
Ene=    -0.5910
Spin= Beta
Occup=    1.00000
   1        -0.00000000
   2        -0.00000000
   3         0.34056745
   4         0.47031204
   5        -0.00000000
   6         0.00000000
   7         0.00000000
   8         0.34056745
   9         0.47031204
  10        -0.00000000
Sym=     5a  
Ene=    -0.5910
Spin= Alpha
Occup=    1.00000
   1         0.00000000
   2        -0.00000000
   3         0.47031204
   4        -0.34056745
   5         0.00000000
   6        -0.00000000
   7         0.00000000
   8         0.47031204
   9        -0.34056745
  10         0.00000000
Sym=     5a  
Ene=    -0.5910
Spin= Beta
Occup=    1.00000
   1         0.00000000
   2        -0.00000000
   3         0.47031204
   4        -0.34056745
   5         0.00000000
   6        -0.00000000
   7         0.00000000
   8         0.47031204
   9        -0.34056745
  10         0.00000000
Sym=     6a  
Ene=    -0.5101
Spin= Alpha
Occup=    1.00000
   1        -0.01598898
   2        -0.66324951
   3        -0.00000000
   4         0.00000000
   5         0.33466204
   6         0.01598898
   7         0.66324951
   8        -0.00000000
   9         0.00000000
  10         0.33466204
Sym=     6a  
Ene=    -0.5101
Spin= Beta
Occup=    1.00000
   1        -0.01598898
   2        -0.66324951
   3        -0.00000000
   4         0.00000000
   5         0.33466204
   6         0.01598898
   7         0.66324951
   8        -0.00000000
   9         0.00000000
  10         0.33466204
Sym=     7a  
Ene=    -0.1381
Spin= Alpha
Occup=    0.00000
   1         0.07276109
   2         0.42030469
   3        -0.00000000
   4         0.00000000
   5        -0.68194534
   6         0.07276109
   7         0.42030469
   8        -0.00000000
   9         0.00000000
  10         0.68194534
Sym=     7a  
Ene=    -0.1381
Spin= Beta
Occup=    0.00000
   1         0.07276109
   2         0.42030469
   3        -0.00000000
   4         0.00000000
   5        -0.68194534
   6         0.07276109
   7         0.42030469
   8        -0.00000000
   9         0.00000000
  10         0.68194534
Sym=     8a  
Ene=     0.2926
Spin= Alpha
Occup=    0.00000
   1         0.00000000
   2         0.00000000
   3        -0.28373769
   4        -0.94149017
   5         0.00000000
   6        -0.00000000
   7        -0.00000000
   8         0.28373769
   9         0.94149017
  10         0.00000000
Sym=     8a  
Ene=     0.2926
Spin= Beta
Occup=    0.00000
   1         0.00000000
   2         0.00000000
   3        -0.28373769
   4        -0.94149017
   5         0.00000000
   6        -0.00000000
   7        -0.00000000
   8         0.28373769
   9         0.94149017
  10         0.00000000
Sym=     9a  
Ene=     0.2926
Spin= Alpha
Occup=    0.00000
   1        -0.00000000
   2        -0.00000000
   3        -0.94149017
   4         0.28373769
   5        -0.00000000
   6         0.00000000
   7         0.00000000
   8         0.94149017
   9        -0.28373769
  10        -0.00000000
Sym=     9a  
Ene=     0.2926
Spin= Beta
Occup=    0.00000
   1        -0.00000000
   2        -0.00000000
   3        -0.94149017
   4         0.28373769
   5        -0.00000000
   6         0.00000000
   7         0.00000000
   8         0.94149017
   9        -0.28373769
  10        -0.00000000
Sym=    10a  
Ene=     1.5004
Spin= Alpha
Occup=    0.00000
   1         0.52620148
   2         2.40364199
   3        -0.00000000
   4         0.00000000
   5         1.62867955
   6        -0.52620148
   7        -2.40364199
   8         0.00000000
   9        -0.00000000
  10         1.62867955
Sym=    10a  
Ene=     1.5004
Spin= Beta
Occup=    0.00000
   1         0.52620148
   2         2.40364199
   3        -0.00000000
   4         0.00000000
   5         1.62867955
   6        -0.52620148
   7        -2.40364199
   8         0.00000000
   9        -0.00000000
  10         1.62867955
