[Molden Format]
[N_Atoms]
                     2
[Atoms] (AU)
C1          1      6           0.00000000      0.00000000      0.00000000
C2          2      6           0.00000000      0.00000000      1.88972612
[Charge] (Mulliken)
  0.999999999999888     
   1.00000000000010     
[GTO] (AU)
   1
   s  14
  5.055750100E+04  1.128874000E-04
  7.524785600E+03  5.295373000E-04
  1.694327600E+03  2.450038300E-03
  4.728227900E+02  1.005398470E-02
  1.517107500E+02  3.545398060E-02
  5.391874600E+01  1.044071086E-01
  2.065931100E+01  2.412894918E-01
  8.383976000E+00  3.834225483E-01
  3.577015000E+00  3.078514393E-01
  1.547118000E+00  6.872442990E-02
  6.130130000E-01  2.224445000E-04
  2.460680000E-01  1.976748900E-03
  9.908700000E-02  2.057859400E-03
  3.468000000E-02  4.182020000E-04
   s  14
  5.055750100E+04 -2.507420000E-05
  7.524785600E+03 -1.175945000E-04
  1.694327600E+03 -5.456275000E-04
  4.728227900E+02 -2.245077100E-03
  1.517107500E+02 -8.043471800E-03
  5.391874600E+01 -2.442588710E-02
  2.065931100E+01 -6.136791180E-02
  8.383976000E+00 -1.177767835E-01
  3.577015000E+00 -1.550487783E-01
  1.547118000E+00 -1.933316860E-02
  6.130130000E-01  3.996930678E-01
  2.460680000E-01  5.589420949E-01
  9.908700000E-02  1.711195023E-01
  3.468000000E-02  7.456244600E-03
   p   9
  8.333315500E+01  1.344656000E-03
  1.955761100E+01  1.023555500E-02
  6.080365000E+00  4.520067100E-02
  2.179317000E+00  1.410756198E-01
  8.651500000E-01  3.047388085E-01
  3.619440000E-01  3.995281011E-01
  1.547400000E-01  2.719163432E-01
  6.542900000E-02  5.857669330E-02
  2.290000000E-02 -1.263813000E-04
 
   2
   s  14
  5.055750100E+04  1.128874000E-04
  7.524785600E+03  5.295373000E-04
  1.694327600E+03  2.450038300E-03
  4.728227900E+02  1.005398470E-02
  1.517107500E+02  3.545398060E-02
  5.391874600E+01  1.044071086E-01
  2.065931100E+01  2.412894918E-01
  8.383976000E+00  3.834225483E-01
  3.577015000E+00  3.078514393E-01
  1.547118000E+00  6.872442990E-02
  6.130130000E-01  2.224445000E-04
  2.460680000E-01  1.976748900E-03
  9.908700000E-02  2.057859400E-03
  3.468000000E-02  4.182020000E-04
   s  14
  5.055750100E+04 -2.507420000E-05
  7.524785600E+03 -1.175945000E-04
  1.694327600E+03 -5.456275000E-04
  4.728227900E+02 -2.245077100E-03
  1.517107500E+02 -8.043471800E-03
  5.391874600E+01 -2.442588710E-02
  2.065931100E+01 -6.136791180E-02
  8.383976000E+00 -1.177767835E-01
  3.577015000E+00 -1.550487783E-01
  1.547118000E+00 -1.933316860E-02
  6.130130000E-01  3.996930678E-01
  2.460680000E-01  5.589420949E-01
  9.908700000E-02  1.711195023E-01
  3.468000000E-02  7.456244600E-03
   p   9
  8.333315500E+01  1.344656000E-03
  1.955761100E+01  1.023555500E-02
  6.080365000E+00  4.520067100E-02
  2.179317000E+00  1.410756198E-01
  8.651500000E-01  3.047388085E-01
  3.619440000E-01  3.995281011E-01
  1.547400000E-01  2.719163432E-01
  6.542900000E-02  5.857669330E-02
  2.290000000E-02 -1.263813000E-04
 
[MO]
Sym=     1a  
Ene=   -12.6390
Spin= Alpha
Occup=    2.00000
   1         0.70603810
   2        -0.00218319
   3         0.00000000
   4         0.00000000
   5         0.00231149
   6         0.70603810
   7        -0.00218319
   8         0.00000000
   9        -0.00000000
  10        -0.00231149
Sym=     2a  
Ene=   -12.6250
Spin= Alpha
Occup=    2.00000
   1        -0.70775281
   2         0.00259010
   3         0.00000000
   4         0.00000000
   5        -0.00006686
   6         0.70775281
   7        -0.00259010
   8         0.00000000
   9        -0.00000000
  10        -0.00006686
Sym=     3a  
Ene=    -2.0942
Spin= Alpha
Occup=    2.00000
   1        -0.09824466
   2         0.38923031
   3         0.00000000
   4         0.00000000
   5         0.34678538
   6        -0.09824466
   7         0.38923031
   8        -0.00000000
   9         0.00000000
  10        -0.34678538
Sym=     4a  
Ene=    -1.4117
Spin= Alpha
Occup=    2.00000
   1         0.00000000
   2        -0.00000000
   3        -0.22072923
   4         0.53708306
   5         0.00000000
   6         0.00000000
   7         0.00000000
   8        -0.22072923
   9         0.53708306
  10         0.00000000
Sym=     5a  
Ene=    -1.3961
Spin= Alpha
Occup=    1.92127
   1        -0.00000000
   2        -0.00000000
   3         0.53708306
   4         0.22072923
   5         0.00000000
   6         0.00000000
   7         0.00000000
   8         0.53708306
   9         0.22072923
  10         0.00000000
Sym=     6a  
Ene=    -0.0011
Spin= Alpha
Occup=    0.07873
   1        -0.07279723
   2        -0.91866273
   3        -0.00000000
   4        -0.00000000
   5         0.15702154
   6         0.07279723
   7         0.91866273
   8        -0.00000000
   9        -0.00000000
  10         0.15702154
Sym=     7a  
Ene=    -0.9213
Spin= Alpha
Occup=    0.00000
   1         0.06234728
   2         0.46234905
   3         0.00000000
   4        -0.00000000
   5        -0.65001180
   6         0.06234728
   7         0.46234905
   8        -0.00000000
   9         0.00000000
  10         0.65001180
Sym=     8a  
Ene=    -0.5742
Spin= Alpha
Occup=    0.00000
   1         0.00000000
   2         0.00000000
   3         0.37378546
   4        -0.90950275
   5         0.00000000
   6        -0.00000000
   7        -0.00000000
   8        -0.37378546
   9         0.90950275
  10         0.00000000
Sym=     9a  
Ene=    -0.5725
Spin= Alpha
Occup=    0.00000
   1        -0.00000000
   2         0.00000000
   3        -0.90950275
   4        -0.37378546
   5         0.00000000
   6        -0.00000000
   7         0.00000000
   8         0.90950275
   9         0.37378546
  10        -0.00000000
Sym=    10a  
Ene=     0.5543
Spin= Alpha
Occup=    0.00000
   1        -0.52316777
   2        -2.31807206
   3         0.00000000
   4        -0.00000000
   5        -1.65528161
   6         0.52316777
   7         2.31807206
   8        -0.00000000
   9         0.00000000
  10        -1.65528161
