[Molden Format]
[N_Atoms]
                     2
[Atoms] (AU)
C1          1      6           0.00000000      0.00000000      0.00000000
C2          2      6           0.00000000      0.00000000      1.88972612
[Charge] (Mulliken)
 -2.966515921798418E-013
  2.842170943040401E-013
[GTO] (AU)
   1
   s  14
  5.055750100E+04  1.128874000E-04
  7.524785600E+03  5.295373000E-04
  1.694327600E+03  2.450038300E-03
  4.728227900E+02  1.005398470E-02
  1.517107500E+02  3.545398060E-02
  5.391874600E+01  1.044071086E-01
  2.065931100E+01  2.412894918E-01
  8.383976000E+00  3.834225483E-01
  3.577015000E+00  3.078514393E-01
  1.547118000E+00  6.872442990E-02
  6.130130000E-01  2.224445000E-04
  2.460680000E-01  1.976748900E-03
  9.908700000E-02  2.057859400E-03
  3.468000000E-02  4.182020000E-04
   s  14
  5.055750100E+04 -2.507420000E-05
  7.524785600E+03 -1.175945000E-04
  1.694327600E+03 -5.456275000E-04
  4.728227900E+02 -2.245077100E-03
  1.517107500E+02 -8.043471800E-03
  5.391874600E+01 -2.442588710E-02
  2.065931100E+01 -6.136791180E-02
  8.383976000E+00 -1.177767835E-01
  3.577015000E+00 -1.550487783E-01
  1.547118000E+00 -1.933316860E-02
  6.130130000E-01  3.996930678E-01
  2.460680000E-01  5.589420949E-01
  9.908700000E-02  1.711195023E-01
  3.468000000E-02  7.456244600E-03
   p   9
  8.333315500E+01  1.344656000E-03
  1.955761100E+01  1.023555500E-02
  6.080365000E+00  4.520067100E-02
  2.179317000E+00  1.410756198E-01
  8.651500000E-01  3.047388085E-01
  3.619440000E-01  3.995281011E-01
  1.547400000E-01  2.719163432E-01
  6.542900000E-02  5.857669330E-02
  2.290000000E-02 -1.263813000E-04
 
   2
   s  14
  5.055750100E+04  1.128874000E-04
  7.524785600E+03  5.295373000E-04
  1.694327600E+03  2.450038300E-03
  4.728227900E+02  1.005398470E-02
  1.517107500E+02  3.545398060E-02
  5.391874600E+01  1.044071086E-01
  2.065931100E+01  2.412894918E-01
  8.383976000E+00  3.834225483E-01
  3.577015000E+00  3.078514393E-01
  1.547118000E+00  6.872442990E-02
  6.130130000E-01  2.224445000E-04
  2.460680000E-01  1.976748900E-03
  9.908700000E-02  2.057859400E-03
  3.468000000E-02  4.182020000E-04
   s  14
  5.055750100E+04 -2.507420000E-05
  7.524785600E+03 -1.175945000E-04
  1.694327600E+03 -5.456275000E-04
  4.728227900E+02 -2.245077100E-03
  1.517107500E+02 -8.043471800E-03
  5.391874600E+01 -2.442588710E-02
  2.065931100E+01 -6.136791180E-02
  8.383976000E+00 -1.177767835E-01
  3.577015000E+00 -1.550487783E-01
  1.547118000E+00 -1.933316860E-02
  6.130130000E-01  3.996930678E-01
  2.460680000E-01  5.589420949E-01
  9.908700000E-02  1.711195023E-01
  3.468000000E-02  7.456244600E-03
   p   9
  8.333315500E+01  1.344656000E-03
  1.955761100E+01  1.023555500E-02
  6.080365000E+00  4.520067100E-02
  2.179317000E+00  1.410756198E-01
  8.651500000E-01  3.047388085E-01
  3.619440000E-01  3.995281011E-01
  1.547400000E-01  2.719163432E-01
  6.542900000E-02  5.857669330E-02
  2.290000000E-02 -1.263813000E-04
 
[MO]
Sym=     1a  
Ene=   -11.4780
Spin= Alpha
Occup=    2.00000
   1         0.70573447
   2        -0.00166466
   3         0.00000000
   4         0.00000000
   5         0.00378344
   6         0.70573447
   7        -0.00166466
   8         0.00000000
   9        -0.00000000
  10        -0.00378344
Sym=     2a  
Ene=   -11.4630
Spin= Alpha
Occup=    2.00000
   1        -0.70889426
   2        -0.00249511
   3         0.00000000
   4         0.00000000
   5        -0.00367054
   6         0.70889426
   7         0.00249511
   8         0.00000000
   9        -0.00000000
  10        -0.00367054
Sym=     3a  
Ene=    -1.1962
Spin= Alpha
Occup=    2.00000
   1        -0.09754706
   2         0.40631208
   3         0.00000000
   4         0.00000000
   5         0.32213969
   6        -0.09754706
   7         0.40631208
   8        -0.00000000
   9         0.00000000
  10        -0.32213969
Sym=     4a  
Ene=    -0.5733
Spin= Alpha
Occup=    2.00000
   1         0.00000000
   2        -0.00000000
   3         0.31680115
   4         0.48663809
   5         0.00000000
   6        -0.00000000
   7         0.00000000
   8         0.31680115
   9         0.48663809
  10         0.00000000
Sym=     5a  
Ene=    -0.5733
Spin= Alpha
Occup=    2.00000
   1        -0.00000000
   2         0.00000000
   3         0.48663809
   4        -0.31680115
   5        -0.00000000
   6        -0.00000000
   7        -0.00000000
   8         0.48663809
   9        -0.31680115
  10        -0.00000000
Sym=     6a  
Ene=    -0.3996
Spin= Alpha
Occup=    1.33868
   1         0.00337319
   2        -0.57402255
   3        -0.00000000
   4        -0.00000000
   5         0.39458600
   6        -0.00337319
   7         0.57402255
   8         0.00000000
   9        -0.00000000
  10         0.39458600
Sym=     7a  
Ene=     0.0000
Spin= Alpha
Occup=    0.66132
   1         0.06672644
   2         0.44741409
   3        -0.00000000
   4        -0.00000000
   5        -0.66256508
   6         0.06672644
   7         0.44741409
   8         0.00000000
   9        -0.00000000
  10         0.66256508
Sym=     8a  
Ene=     0.3174
Spin= Alpha
Occup=    0.00000
   1         0.00000000
   2         0.00000000
   3        -0.21727393
   4        -0.95901139
   5         0.00000000
   6        -0.00000000
   7        -0.00000000
   8         0.21727393
   9         0.95901139
  10         0.00000000
Sym=     9a  
Ene=     0.3174
Spin= Alpha
Occup=    0.00000
   1        -0.00000000
   2        -0.00000000
   3        -0.95901139
   4         0.21727393
   5        -0.00000000
   6         0.00000000
   7         0.00000000
   8         0.95901139
   9        -0.21727393
  10        -0.00000000
Sym=    10a  
Ene=     1.5238
Spin= Alpha
Occup=    0.00000
   1        -0.52666455
   2        -2.42649910
   3         0.00000000
   4        -0.00000000
   5        -1.61520940
   6         0.52666455
   7         2.42649910
   8        -0.00000000
   9         0.00000000
  10        -1.61520940
