   This run of MOLCAS is using the pymolcas driver

                             OPE
                             OPE          NMOL  CASOP  ENMOLC A   SO
                 OPE        NMOLC        AS  OP EN  MO LC     AS  OP
                OPENM       OL CA        SO  PE NM  OL CA     SOP EN
                OP EN      MO   LC       AS  OP ENMOL  CASO   PENMOL
                OP  EN     MO   LC       AS  OP EN     MO     LC ASO
               OP   E  NMOL  C  AS       OP  EN MO     LC     AS  OP
               OP  E   NMO   LC AS        OPEN  MO     LCASOP EN   M
               O  PEN   MO  LCA  SO
            OPE   NMO   L   CAS    OP
        OPENMOL  CASOP     ENMOL   CASOPE
     OPENMOLCA   SOPENMOLCASOPEN   MOLCASOPE
    OPENMOLCAS   OP           EN   MOL    CAS
    OPENMOLCAS       OP  ENM        O     LCA
    OPENMOLCAS    OPEN  MOLCASO     P  E  NMO
    OPENMOLCAS     OP               E  N  MOL
    OPENMOLCA   SO           PENM   O  L  CAS    OPEN    MO    LCAS
    OPENMOLCA   SOP           ENM   O  L  CAS   OP  EN  MOLC  AS   O
    OPENMOLCA   SOPE           NM      O  LCA   S      OP  EN MO
    OPENMOLC                AS         O  PEN   M      OL  CA  SOPE
    OPENMO        LCASOPE  NMOL        C  ASO   P      ENMOLC     AS
    OPE     NMO      LCA  SO     P     E   NM   OL  CA SO  PE N   MO
          OPENMOLCA            SOPE   NMO        LCAS  O    P  ENMO
     OPENMOLCASOPENMOLCASOPENMOLCASOPENMOLCA
        OPENMOLCASOPENMOLCASOPENMOLCASOPE
            OPENMOLCASOPENMOLCASOPENM
               OPENMOLCASOPENMOLCA        version: 1d1d16313-dirty
                   OPENMOLCASO
                       OPE                tag:

 OpenMolcas is free software; you can redistribute it and/or modify it
 under the terms of the GNU Lesser General Public License version 2.1.
 OpenMolcas is distributed in the hope that it will be useful, but it
 is provided "as is" and without any express or implied warranties.
 For more details see the full text of the license in the file
 LICENSE or in <http://www.gnu.org/licenses/>.

                 Copyright (C) The OpenMolcas Authors
           For the author list and the recommended citation,
                   consult the file CONTRIBUTORS.md

           *************************************************
           * pymolcas version py2.28                       *
           *   build c4a6d18ded8cb6cad61d2372a9abd97c      *
           *   (after the EMIL interpreter by V. Veryazov) *
           *************************************************

configuration info
------------------
C Compiler ID: IntelLLVM
C flags: -std=gnu99
Fortran Compiler ID: IntelLLVM
Fortran flags: -standard-semantics -fltconsistency -fpp -i8 -heap-arrays
Definitions: _MOLCAS_;_I8_;_LINUX_
Parallel: OFF (GA=OFF)


   -------------------------------------------------------------------------------
  |
  |              Project: 3.43
  |       Submitted from: /home/grierjones/DDCASPT2/iron_oxo_DDCASPT2/cluster/3.43
  |         Scratch area: /tmp/3.43
  |      Save outputs to: /home/grierjones/DDCASPT2/iron_oxo_DDCASPT2/cluster/3.43
  |               Molcas: /home/grierjones/Test/build
  |
  | Scratch area is empty
  |
  |       MOLCAS_DRIVER = /usr/local/pymolcas
  | MOLCAS_KEEP_WORKDIR = NO
  |  MOLCAS_NEW_WORKDIR = YES
  |       MOLCAS_NPROCS = 1
  |        MOLCAS_PRINT = NORMAL
  |       MOLCAS_SOURCE = /home/grierjones/Test
  |    MOLCAS_STRUCTURE = 0
  |
   -------------------------------------------------------------------------------

++ ---------   Input file   ---------

&GATEWAY
coord=3.43.xyz
Basis = ANO-RCC-VDZP
Group = nosymm
Expert
End of Input

&SEWARD
End of Input

&SCF
UHF
charge
2
spin
5
FileOrb
/home/grierjones/DDCASPT2/iron_oxo_DDCASPT2/cluster/3.42/3.42.UhfOrb

>>> COPY $WorkDir/3.43.scf.h5 $CurrDir/

&RASSCF
Title= RASSCF
FileOrb
/home/grierjones/DDCASPT2/iron_oxo_DDCASPT2/cluster/3.42/3.42.RasOrb
NACTEL
10 0 0
RAS2
14
Symmetry
1
Spin
5
charge
2
orblisting
all
ITERation
300 200

>>> COPY $WorkDir/3.43.rasscf.h5 $CurrDir/

>>> COPY $WorkDir/GMJ_Fock_MO.csv $CurrDir/3.43.GMJ_Fock_MO.csv

>>> COPY $WorkDir/GMJ_PT2_Fock_MO.csv $CurrDir/3.43.GMJ_PT2_Fock_MO.csv

&MOTRA
Frozen=0
LUMORB

>>> COPY $WorkDir/GMJ_one_int_indx.csv $CurrDir/3.43.GMJ_one_int_indx.csv

>>> COPY $WorkDir/GMJ_one_int.csv $CurrDir/3.43.GMJ_one_int.csv

>>> COPY $WorkDir/GMJ_two_int_indx.csv $CurrDir/3.43.GMJ_two_int_indx.csv

>>> COPY $WorkDir/GMJ_two_int.csv $CurrDir/3.43.GMJ_two_int.csv

&CASPT2
Frozen
0
MAXITER
50

>>> FOREACH i IN (B,E,F,G,H)

  >>> FOREACH j IN (P,M)

    >>> IF (-FILE GMJ_e2_${i}_${j}.csv)

      >>> COPY $WorkDir/GMJ_RHS_${i}_${j}.csv $CurrDir/GMJ_RHS_${i}_${j}.csv

      >>> COPY $WorkDir/GMJ_IVECW_${i}_${j}.csv $CurrDir/GMJ_IVECW_${i}_${j}.csv

      >>> COPY $WorkDir/GMJ_IVECX_${i}_${j}.csv $CurrDir/GMJ_IVECX_${i}_${j}.csv

      >>> COPY $WorkDir/GMJ_IVECC2_${i}_${j}.csv $CurrDir/GMJ_IVECC2_${i}_${j}.csv

      >>> COPY $WorkDir/GMJ_e2_${i}_${j}.csv $CurrDir/GMJ_e2_${i}_${j}.csv

    >>> END IF

  >>> END FOREACH

>>> END FOREACH

>>> FOREACH i IN (A,C,D)

  >>> IF (-FILE GMJ_e2_$i.csv)

    >>> COPY $WorkDir/GMJ_RHS_$i.csv $CurrDir/GMJ_RHS_$i.csv

    >>> COPY $WorkDir/GMJ_IVECW_$i.csv $CurrDir/GMJ_IVECW_$i.csv

    >>> COPY $WorkDir/GMJ_IVECX_$i.csv $CurrDir/GMJ_IVECX_$i.csv

    >>> COPY $WorkDir/GMJ_IVECC2_$i.csv $CurrDir/GMJ_IVECC2_$i.csv

    >>> COPY $WorkDir/GMJ_e2_$i.csv $CurrDir/GMJ_e2_$i.csv

  >>> END IF

>>> END FOREACH

-- ----------------------------------

--- Start Module: gateway at Wed Jan 22 10:50:38 2025 ---
 
()()()()()()()()()()()()()()()()()()()()()()()()()()()()()()()()()()()()()()()()()()()()()()()()()()

                                              &GATEWAY

                                   only a single process is used
                       available to each process: 2.0 GB of memory, 1 thread?
()()()()()()()()()()()()()()()()()()()()()()()()()()()()()()()()()()()()()()()()()()()()()()()()()()
 
 ###############################################################################
 ###############################################################################
 ###                                                                         ###
 ###                                                                         ###
 ###                                                                         ###
 ###    WARNING: EXPERT option is ON!                                        ###
 ###                                                                         ###
 ###                                                                         ###
 ###############################################################################
 ###############################################################################
 
++    Symmetry information:
      ---------------------
 
                    Character Table for C1 
 
                             E  
                    a        1  x, y, xy, Rz, z, xz, Ry, yz, Rx, I
--
 
 
++    Basis set information:
      ----------------------
 
 
      Basis set label: O.ANO-RCC...3S2P1D.
 
      Electronic valence basis set:
      ------------------
      Associated Effective Charge   8.000000 au
      Associated Actual Charge      8.000000 au
      Nuclear Model: Point charge
 
      Shell  nPrim  nBasis  Cartesian Spherical Contaminant
         s      14       3        X                  
         p       9       2        X                  
         d       4       1                 X         
 
 
      Basis set label: FE.ANO-RCC...5S4P2D1F.
 
      Electronic valence basis set:
      ------------------
      Associated Effective Charge  26.000000 au
      Associated Actual Charge     26.000000 au
      Nuclear Model: Point charge
 
      Shell  nPrim  nBasis  Cartesian Spherical Contaminant
         s      21       5        X                  
         p      15       4        X                  
         d      10       2                 X         
         f       6       1                 X         
--
 
 
++    Molecular structure info:
      -------------------------
 
                    ************************************************ 
                    **** Cartesian Coordinates / Bohr, Angstrom **** 
                    ************************************************ 
 
     Center  Label                x              y              z                     x              y              z
        1      O1               0.000000       0.000000       4.755571              0.000000       0.000000       2.516540
        2      FE2              0.000000       0.000000      -1.732010              0.000000       0.000000      -0.916540
--
 
 
            Nuclear Potential Energy             32.06125689 au
 
 ###############################################################################
 ###############################################################################
 ###                                                                         ###
 ###                                                                         ###
 ###    There were warnings during the execution                             ###
 ###    Please, check the output with care!                                  ###
 ###                                                                         ###
 ###                                                                         ###
 ###############################################################################
 ###############################################################################
--- Stop Module: gateway at Wed Jan 22 10:50:38 2025 /rc=_RC_ALL_IS_WELL_ ---
*** files: xmldump
    saved to directory /home/grierjones/DDCASPT2/iron_oxo_DDCASPT2/cluster/3.43

--- Start Module: seward at Wed Jan 22 10:50:38 2025 ---
 
()()()()()()()()()()()()()()()()()()()()()()()()()()()()()()()()()()()()()()()()()()()()()()()()()()

                                              &SEWARD

                                   only a single process is used
                       available to each process: 2.0 GB of memory, 1 thread?
()()()()()()()()()()()()()()()()()()()()()()()()()()()()()()()()()()()()()()()()()()()()()()()()()()
 
 ###############################################################################
 ###############################################################################
 ###                                                                         ###
 ###                                                                         ###
 ###                                                                         ###
 ###    WARNING: EXPERT option is ON!                                        ###
 ###                                                                         ###
 ###                                                                         ###
 ###############################################################################
 ###############################################################################
               SEWARD will generate:
                  Multipole Moment integrals up to order  2
                  Kinetic Energy integrals
                  Nuclear Attraction integrals (point charge)
                  One-Electron Hamiltonian integrals
                  Velocity integrals
                  Relativistic Douglas-Kroll-Hess integrals:
                    - Parametrization         : EXP
                    - DKH order of Hamiltonian: 2
                    - DKH order of Properties : 0
                         - multipole moment operators
                         - electric potential operators
                         - contact operators
                  Atomic mean-field integrals
                  Two-Electron Repulsion integrals
 
                   Integrals are discarded if absolute value <: 0.10E-13
                   Integral cutoff threshold is set to       <: 0.10E-15
 
            Nuclear Potential Energy             32.06125689 au
 
 
      Basis set specifications :
      Symmetry species         a  
      Basis functions           48
 
 
  Input file to MOLDEN was generated!
 
 ###############################################################################
 ###############################################################################
 ###                                                                         ###
 ###                                                                         ###
 ###    There were warnings during the execution                             ###
 ###    Please, check the output with care!                                  ###
 ###                                                                         ###
 ###                                                                         ###
 ###############################################################################
 ###############################################################################
forrtl: warning (525): IEEE_DIVIDE_BY_ZERO is signaling
forrtl: warning (526): IEEE_INVALID is signaling
forrtl: warning (528): IEEE_UNDERFLOW is signaling
--- Stop Module: seward at Wed Jan 22 10:50:39 2025 /rc=_RC_ALL_IS_WELL_ ---
*** files: 3.43.GssOrb 3.43.guessorb.h5 3.43.guessorb.molden xmldump
    saved to directory /home/grierjones/DDCASPT2/iron_oxo_DDCASPT2/cluster/3.43
--- Module seward spent 1 second ---

*** symbolic link created: INPORB -> 3.43.GssOrb
--- Start Module: scf at Wed Jan 22 10:50:39 2025 ---
 
()()()()()()()()()()()()()()()()()()()()()()()()()()()()()()()()()()()()()()()()()()()()()()()()()()

                                                &SCF

                                   only a single process is used
                       available to each process: 2.0 GB of memory, 1 thread?
()()()()()()()()()()()()()()()()()()()()()()()()()()()()()()()()()()()()()()()()()()()()()()()()()()
 
 *** Possible bug in opening file
 *** isFreeUnit resets the unit number
++    Input section:
      --------------
 
      Header of the integral files:
      
       Integrals generated by seward 4.2.0  , Wed Jan 22 10:50:38 2025
 
 
      Cartesian coordinates in Angstrom:
      -----------------------------------------------------
      No.  Label        X            Y            Z        
      -----------------------------------------------------
       1   O1         0.00000000   0.00000000   2.51654000
       2   FE2        0.00000000   0.00000000  -0.91654000
      -----------------------------------------------------
      Nuclear repulsion energy =   32.06125689
--
 
++    Orbital specifications:
      -----------------------
 
      Symmetry species               1
                                     a
      Frozen orbitals                0
      Occupied orbitals alpha       18
      Occupied orbitals beta        14
      Secondary orbitals alpha      30
      Secondary orbitals beta       34
      Deleted orbitals               0
      Total number of orbitals      48
      Number of basis functions     48
--
 
      Molecular charge                           2.000
 
++    Optimization specifications:
      ----------------------------
 
      SCF Algorithm: Conventional USCF
      D(i)-D(i-1) density differences are used
      Number of density matrices in core                5
      Maximum number of NDDO SCF iterations           400
      Maximum number of HF SCF iterations             400
      Threshold for SCF energy change            0.10E-08
      Threshold for density matrix               0.10E-03
      Threshold for Fock matrix                  0.15E-03
      Threshold for linear dependence            0.10E-08
      Threshold at which DIIS is turned on       0.15E+00
      Threshold at which QNR/C2DIIS is turned on 0.75E-01
      Threshold for Norm(delta) (QNR/C2DIIS)     0.20E-04
      DIIS extrapolation of the SCF procedure
      All orbitals punched on: UHFORB
--
 
      Input vectors read from INPORB
      Orbital file label: * UHF orbitals
 
 
++ Convergence information
                               UHF SCF        iterations: Energy and convergence statistics
 
Iter     Tot. SCF        One-elec.       Two-elec.     Energy      Max Dij or  Max Fij      DNorm      TNorm      AccCon     Time
         Energy          Energy          Energy        Change      Delta Norm                                                in Sec.
 
 The total and one-electron energies are shifted by a value of      1000. a.u.
 
   1  -345.209029682  -910.383433096   533.113146519   0.00E+00    0.83E-03*   0.12E-03     0.80E+01   0.18E+03   None         0.
   2  -345.209029933  -910.385995480   533.115708653  -0.25E-06*   0.54E-03*   0.61E-04     0.20E-02   0.18E+03   EDIIS        0.
   3  -345.209030022  -910.385009778   533.114722862  -0.89E-07*   0.20E-03*   0.14E-03     0.12E-02   0.18E+03   c2DIIS       0.
   4  -345.209030083  -910.392494420   533.122207442  -0.61E-07*   0.42E-03*   0.10E-03     0.72E-03   0.18E+03   QNRc2DIIS    0.
   5  -345.209030089  -910.382899677   533.112612693  -0.63E-08*   0.22E-03*   0.99E-04     0.58E-03   0.18E+03   QNRc2DIIS    0.
   6  -345.209030118  -910.387575236   533.117288224  -0.28E-07*   0.39E-03*   0.93E-05     0.30E-03   0.18E+03   QNRc2DIIS    0.
   7  -345.209030122  -910.387917421   533.117630404  -0.39E-08*   0.13E-03*   0.36E-05     0.55E-03   0.18E+03   QNRc2DIIS    0.
   8  -345.209030122  -910.388015887   533.117728871  -0.47E-09    0.15E-03*   0.29E-05     0.18E-03   0.18E+03   QNRc2DIIS    0.
   9  -345.209030123  -910.388094151   533.117807134  -0.38E-09    0.54E-05    0.95E-06     0.21E-03   0.18E+03   QNRc2DIIS    0.
 
       Convergence after  9 Macro Iterations
--
 
 *****************************************************************************************************************************
 *                                                                                                                           *
 *                                             SCF/KS-DFT Program, Final results                                             *
 *                                                                                                                           *
 *                                                                                                                           *
 *                                                                                                                           *
 *                                                       Final Results                                                       *
 *                                                                                                                           *
 *****************************************************************************************************************************
 
::    Total SCF energy                              -1345.2090301225
      One-electron energy                           -1910.3880941509
      Two-electron energy                             533.1178071338
      Nuclear repulsion energy                         32.0612568945
      Kinetic energy (interpolated)                  1399.3863389437
      Virial theorem                                    0.9612849523
      Total spin, S(S+1)                                7.0165005763
      Total spin, S                                     2.1956447422
      Max non-diagonal density matrix element           0.0000035550
      Max non-diagonal Fock matrix element              0.0000000661
 
 
      All orbitals with orbital energies smaller than  E(LUMO)+0.5 are printed
 
++    Molecular orbitals:
      -------------------
 
      Title: UHF orbitals (alpha)

      Molecular orbitals for symmetry species 1: a  
 
          Orbital            1         2         3         4         5         6         7         8         9        10    
          Energy         -263.9387  -32.7162  -27.7994  -27.7994  -27.7695  -21.5401   -4.6302   -3.2074   -3.2074   -3.1358
          Occ. No.          1.0000    1.0000    1.0000    1.0000    1.0000    1.0000    1.0000    1.0000    1.0000    1.0000
 
        1 O1     1s        -0.0000   -0.0000    0.0000   -0.0000   -0.0000    1.0000    0.0000   -0.0000    0.0000   -0.0000
        2 O1     2s        -0.0000   -0.0001    0.0000   -0.0000   -0.0000    0.0003   -0.0000   -0.0000    0.0000   -0.0000
        3 O1     3s        -0.0000   -0.0001    0.0000   -0.0000   -0.0000   -0.0011   -0.0001   -0.0000    0.0000   -0.0001
        4 O1     2px        0.0000    0.0000    0.0000   -0.0000   -0.0000   -0.0000    0.0000   -0.0000    0.0000   -0.0000
        5 O1     3px        0.0000    0.0000    0.0000   -0.0000    0.0000    0.0000    0.0000   -0.0000    0.0002    0.0000
        6 O1     2py       -0.0000   -0.0000   -0.0000   -0.0000    0.0000    0.0000   -0.0000    0.0000    0.0000    0.0000
        7 O1     3py       -0.0000   -0.0000   -0.0000   -0.0000   -0.0000   -0.0000   -0.0000    0.0002    0.0000   -0.0000
        8 O1     2pz       -0.0000    0.0000   -0.0000    0.0000    0.0000   -0.0000    0.0003    0.0000   -0.0000    0.0000
        9 O1     3pz       -0.0000    0.0001   -0.0000    0.0000    0.0000    0.0001    0.0006    0.0000   -0.0000    0.0005
       10 O1     3d2-       0.0000    0.0000   -0.0000    0.0000    0.0000    0.0000    0.0000    0.0000   -0.0000    0.0000
       11 O1     3d1-       0.0000    0.0000    0.0000    0.0000    0.0000    0.0000    0.0000   -0.0000   -0.0000    0.0000
       12 O1     3d0        0.0000   -0.0000   -0.0000    0.0000   -0.0000   -0.0015   -0.0001   -0.0000    0.0000   -0.0000
       13 O1     3d1+      -0.0000   -0.0000   -0.0000    0.0000   -0.0000   -0.0000   -0.0000    0.0000   -0.0000   -0.0000
       14 O1     3d2+      -0.0000    0.0000   -0.0000   -0.0000    0.0000    0.0000    0.0000    0.0000    0.0000    0.0000
       15 FE2    1s         1.0000    0.0000    0.0000   -0.0000   -0.0000    0.0000   -0.0000    0.0000   -0.0000    0.0000
       16 FE2    2s        -0.0000    1.0000    0.0000   -0.0000   -0.0008    0.0000   -0.0023    0.0000   -0.0000   -0.0000
       17 FE2    3s         0.0000    0.0023   -0.0000    0.0000   -0.0000    0.0000    0.9999    0.0000   -0.0000   -0.0035
       18 FE2    4s        -0.0000   -0.0001   -0.0000    0.0000    0.0000    0.0001    0.0063   -0.0000    0.0000    0.0021
       19 FE2    5s         0.0000    0.0002   -0.0000    0.0000    0.0000    0.0000   -0.0041    0.0000   -0.0000   -0.0010
       20 FE2    2px       -0.0000    0.0000   -0.2172    0.9761   -0.0000   -0.0000   -0.0000    0.0004   -0.0020    0.0000
       21 FE2    3px       -0.0000    0.0000   -0.0004    0.0020   -0.0000   -0.0000    0.0000   -0.2154    0.9765   -0.0000
       22 FE2    4px       -0.0000   -0.0000    0.0000   -0.0002    0.0000   -0.0000   -0.0000   -0.0005    0.0024   -0.0000
       23 FE2    5px        0.0000    0.0000   -0.0001    0.0006   -0.0000   -0.0000    0.0000    0.0008   -0.0037    0.0000
       24 FE2    2py        0.0000   -0.0000    0.9761    0.2172    0.0001    0.0000    0.0000   -0.0020   -0.0004   -0.0000
       25 FE2    3py        0.0000   -0.0000    0.0020    0.0004    0.0000    0.0000   -0.0000    0.9765    0.2154    0.0001
       26 FE2    4py        0.0000    0.0000   -0.0002   -0.0000   -0.0000    0.0000    0.0000    0.0024    0.0005    0.0000
       27 FE2    5py       -0.0000   -0.0000    0.0006    0.0001    0.0000    0.0000   -0.0000   -0.0037   -0.0008   -0.0000
       28 FE2    2pz        0.0000    0.0008   -0.0001    0.0000    1.0000    0.0000    0.0000    0.0000   -0.0000   -0.0016
       29 FE2    3pz       -0.0000    0.0000   -0.0000    0.0000    0.0016    0.0000    0.0035   -0.0001    0.0000    1.0000
       30 FE2    4pz       -0.0000    0.0000    0.0000   -0.0000   -0.0001    0.0001    0.0006   -0.0000    0.0000    0.0064
       31 FE2    5pz       -0.0000    0.0000   -0.0000    0.0000    0.0003    0.0001   -0.0002    0.0000   -0.0000   -0.0058
       32 FE2    3d2-      -0.0000    0.0000   -0.0000    0.0000    0.0000   -0.0000    0.0000   -0.0000    0.0000    0.0000
       33 FE2    4d2-       0.0000   -0.0000    0.0000   -0.0000   -0.0000   -0.0000   -0.0000   -0.0000    0.0000   -0.0000
       34 FE2    3d1-      -0.0000   -0.0000    0.0001    0.0000    0.0000    0.0000   -0.0000    0.0019    0.0004    0.0000
       35 FE2    4d1-       0.0000    0.0000   -0.0000   -0.0000   -0.0000    0.0000    0.0000    0.0001    0.0000    0.0000
       36 FE2    3d0       -0.0000   -0.0004   -0.0000    0.0000    0.0001    0.0000   -0.0127   -0.0000    0.0000    0.0017
       37 FE2    4d0        0.0000    0.0004    0.0000   -0.0000   -0.0000    0.0001    0.0047   -0.0000    0.0000    0.0010
       38 FE2    3d1+       0.0000    0.0000   -0.0000    0.0001   -0.0000   -0.0000    0.0000   -0.0004    0.0019   -0.0000
       39 FE2    4d1+      -0.0000   -0.0000    0.0000   -0.0000    0.0000   -0.0000   -0.0000   -0.0000    0.0001   -0.0000
       40 FE2    3d2+      -0.0000   -0.0000   -0.0000   -0.0000    0.0000   -0.0000    0.0000   -0.0000   -0.0000    0.0000
       41 FE2    4d2+       0.0000    0.0000    0.0000    0.0000   -0.0000   -0.0000   -0.0000   -0.0000   -0.0000   -0.0000
       42 FE2    4f3-       0.0000    0.0000    0.0000    0.0000   -0.0000    0.0000    0.0000    0.0000    0.0000   -0.0000
       43 FE2    4f2-       0.0000    0.0000    0.0000   -0.0000   -0.0000   -0.0000    0.0000    0.0000   -0.0000   -0.0000
       44 FE2    4f1-       0.0000   -0.0000   -0.0003   -0.0001   -0.0000    0.0000   -0.0000   -0.0076   -0.0017   -0.0000
       45 FE2    4f0        0.0000   -0.0000    0.0000   -0.0000   -0.0001    0.0000   -0.0001    0.0000   -0.0000   -0.0017
       46 FE2    4f1+      -0.0000    0.0000    0.0001   -0.0003    0.0000   -0.0000    0.0000    0.0017   -0.0076    0.0000
       47 FE2    4f2+      -0.0000    0.0000    0.0000    0.0000   -0.0000   -0.0000    0.0000    0.0000    0.0000   -0.0000
       48 FE2    4f3+       0.0000    0.0000   -0.0000    0.0000   -0.0000    0.0000    0.0000   -0.0000    0.0000   -0.0000
 
          Orbital           11        12        13        14        15        16        17        18        19        20    
          Energy           -2.0526   -1.4372   -1.4372   -0.9402   -0.9402   -0.8995   -0.8679   -0.8679   -0.6028   -0.3827
          Occ. No.          1.0000    1.0000    1.0000    1.0000    1.0000    1.0000    1.0000    1.0000    0.0000    0.0000
 
        1 O1     1s        -0.0004   -0.0000    0.0000    0.0000    0.0000   -0.0014    0.0000   -0.0000    0.0003   -0.0074
        2 O1     2s         0.9970   -0.0000    0.0000    0.0000    0.0000   -0.0183    0.0000   -0.0000    0.0172   -0.0743
        3 O1     3s        -0.0695    0.0000   -0.0000    0.0000    0.0000   -0.0026    0.0000   -0.0000   -0.0122    0.0145
        4 O1     2px       -0.0000    0.9560   -0.2557   -0.0000    0.0000   -0.0000    0.0015   -0.0062    0.0000    0.0000
        5 O1     3px        0.0000   -0.1382    0.0370   -0.0000    0.0000    0.0000    0.0006   -0.0023    0.0000    0.0000
        6 O1     2py        0.0000    0.2557    0.9560   -0.0000   -0.0000    0.0000   -0.0062   -0.0015   -0.0001   -0.0000
        7 O1     3py       -0.0000   -0.0370   -0.1382   -0.0000   -0.0000   -0.0000   -0.0023   -0.0006   -0.0000   -0.0000
        8 O1     2pz       -0.0160   -0.0000    0.0001   -0.0000    0.0000   -0.0404    0.0000   -0.0000    0.9848    0.1726
        9 O1     3pz       -0.0020    0.0000   -0.0000   -0.0000   -0.0000    0.0001    0.0000   -0.0000    0.1071    0.0015
       10 O1     3d2-       0.0000    0.0000   -0.0000   -0.0000    0.0000   -0.0000    0.0000   -0.0000    0.0000   -0.0000
       11 O1     3d1-       0.0000   -0.0011   -0.0043   -0.0000   -0.0000   -0.0000   -0.0004   -0.0001    0.0000   -0.0000
       12 O1     3d0       -0.0499    0.0000   -0.0000   -0.0000   -0.0000    0.0019   -0.0000    0.0000   -0.0076    0.0057
       13 O1     3d1+      -0.0000   -0.0043    0.0011   -0.0000    0.0000    0.0000    0.0001   -0.0004   -0.0000    0.0000
       14 O1     3d2+       0.0000   -0.0000   -0.0000    0.0000    0.0000   -0.0000    0.0000    0.0000    0.0000   -0.0000
       15 FE2    1s        -0.0000    0.0000   -0.0000    0.0000    0.0000   -0.0000    0.0000   -0.0000    0.0002    0.0000
       16 FE2    2s        -0.0000    0.0000   -0.0000    0.0000    0.0000    0.0004   -0.0000    0.0000    0.0018    0.0003
       17 FE2    3s        -0.0002    0.0000   -0.0000    0.0000    0.0000    0.0122   -0.0000    0.0000    0.0111   -0.0053
       18 FE2    4s        -0.0019    0.0000   -0.0000   -0.0000   -0.0000    0.0214    0.0000   -0.0000   -0.0316    0.9852
       19 FE2    5s        -0.0025    0.0000   -0.0000   -0.0000    0.0000   -0.0003   -0.0000    0.0000    0.0055    0.0303
       20 FE2    2px       -0.0000    0.0000   -0.0000   -0.0000    0.0000    0.0000    0.0000   -0.0001   -0.0000   -0.0000
       21 FE2    3px       -0.0000    0.0001   -0.0000   -0.0000    0.0000    0.0000    0.0005   -0.0019   -0.0000    0.0000
       22 FE2    4px       -0.0000    0.0027   -0.0007    0.0000   -0.0000   -0.0000   -0.0053    0.0212    0.0000   -0.0000
       23 FE2    5px       -0.0000    0.0008   -0.0002    0.0000   -0.0000   -0.0000   -0.0002    0.0007   -0.0000   -0.0000
       24 FE2    2py        0.0000    0.0000    0.0000   -0.0000   -0.0000   -0.0000   -0.0001   -0.0000    0.0000    0.0000
       25 FE2    3py        0.0000    0.0000    0.0001   -0.0000   -0.0000   -0.0000   -0.0019   -0.0005    0.0000   -0.0000
       26 FE2    4py        0.0000    0.0007    0.0027    0.0000    0.0000    0.0000    0.0212    0.0053   -0.0000    0.0000
       27 FE2    5py        0.0000    0.0002    0.0008    0.0000    0.0000    0.0000    0.0007    0.0002    0.0000    0.0000
       28 FE2    2pz       -0.0000   -0.0000    0.0000    0.0000    0.0000   -0.0001    0.0000   -0.0000    0.0003    0.0000
       29 FE2    3pz       -0.0005   -0.0000    0.0000    0.0000    0.0000   -0.0021    0.0000   -0.0000    0.0081   -0.0020
       30 FE2    4pz       -0.0023    0.0000   -0.0000    0.0000   -0.0000    0.0376   -0.0000    0.0000   -0.0264    0.1867
       31 FE2    5pz       -0.0012    0.0000   -0.0000   -0.0000   -0.0000    0.0016   -0.0000    0.0000   -0.0027    0.0246
       32 FE2    3d2-       0.0000   -0.0000    0.0000   -0.2592    0.9658   -0.0000   -0.0000    0.0001    0.0000    0.0000
       33 FE2    4d2-      -0.0000   -0.0000    0.0000    0.0004   -0.0016   -0.0000   -0.0000    0.0000    0.0000   -0.0000
       34 FE2    3d1-       0.0000    0.0003    0.0012    0.0000    0.0000    0.0001    0.9697    0.2425    0.0000   -0.0000
       35 FE2    4d1-       0.0000    0.0002    0.0009   -0.0000   -0.0000    0.0000    0.0244    0.0061   -0.0000   -0.0000
       36 FE2    3d0        0.0007    0.0000   -0.0000   -0.0000   -0.0000    0.9972   -0.0001    0.0000    0.0749   -0.0189
       37 FE2    4d0       -0.0010    0.0000   -0.0000    0.0000    0.0000    0.0181   -0.0000    0.0000   -0.0037   -0.0012
       38 FE2    3d1+      -0.0000    0.0012   -0.0003    0.0000   -0.0001   -0.0000   -0.2425    0.9697   -0.0000    0.0000
       39 FE2    4d1+      -0.0000    0.0009   -0.0002   -0.0000    0.0000   -0.0000   -0.0061    0.0244    0.0000    0.0000
       40 FE2    3d2+       0.0000    0.0000    0.0000    0.9658    0.2592   -0.0000   -0.0000   -0.0000    0.0000    0.0000
       41 FE2    4d2+      -0.0000    0.0000    0.0000   -0.0016   -0.0004   -0.0000   -0.0000   -0.0000    0.0000   -0.0000
       42 FE2    4f3-       0.0000    0.0000   -0.0000    0.0000   -0.0000   -0.0000   -0.0000   -0.0000   -0.0000   -0.0000
       43 FE2    4f2-       0.0000    0.0000   -0.0000   -0.0004    0.0015   -0.0000   -0.0000    0.0000   -0.0000   -0.0000
       44 FE2    4f1-       0.0000    0.0000    0.0000    0.0000    0.0000    0.0000    0.0021    0.0005   -0.0000    0.0000
       45 FE2    4f0        0.0000    0.0000   -0.0000   -0.0000   -0.0000    0.0024   -0.0000    0.0000   -0.0007    0.0004
       46 FE2    4f1+      -0.0000    0.0000   -0.0000    0.0000   -0.0000   -0.0000   -0.0005    0.0021    0.0000   -0.0000
       47 FE2    4f2+       0.0000   -0.0000   -0.0000    0.0015    0.0004   -0.0000   -0.0000   -0.0000   -0.0000   -0.0000
       48 FE2    4f3+       0.0000   -0.0000   -0.0000   -0.0000   -0.0000   -0.0000    0.0000   -0.0000   -0.0000   -0.0000
 
          Orbital           21        22        23        24    
          Energy           -0.2323   -0.2323   -0.2259   -0.1307
          Occ. No.          0.0000    0.0000    0.0000    0.0000
 
        1 O1     1s         0.0000    0.0000   -0.0085   -0.0131
        2 O1     2s         0.0000    0.0000   -0.0814   -0.1125
        3 O1     3s        -0.0000   -0.0000    0.0564    0.0337
        4 O1     2px        0.0023   -0.0063    0.0000   -0.0000
        5 O1     3px       -0.0319    0.0884    0.0000   -0.0000
        6 O1     2py       -0.0063   -0.0023   -0.0000    0.0000
        7 O1     3py        0.0884    0.0319   -0.0000    0.0000
        8 O1     2pz       -0.0000   -0.0000    0.1490    0.0242
        9 O1     3pz        0.0000    0.0000   -0.0442    0.0593
       10 O1     3d2-       0.0000   -0.0000   -0.0000   -0.0000
       11 O1     3d1-      -0.0056   -0.0020   -0.0000   -0.0000
       12 O1     3d0       -0.0000   -0.0000    0.0101   -0.0040
       13 O1     3d1+       0.0020   -0.0056    0.0000    0.0000
       14 O1     3d2+       0.0000    0.0000   -0.0000   -0.0000
       15 FE2    1s         0.0000    0.0000   -0.0000    0.0001
       16 FE2    2s         0.0000    0.0000   -0.0003    0.0003
       17 FE2    3s         0.0000    0.0000   -0.0008    0.0067
       18 FE2    4s         0.0000    0.0000   -0.1999    0.0004
       19 FE2    5s        -0.0000   -0.0000    0.0371    1.0029
       20 FE2    2px       -0.0000    0.0001   -0.0000    0.0000
       21 FE2    3px        0.0009   -0.0024    0.0000   -0.0000
       22 FE2    4px       -0.3309    0.9174   -0.0000    0.0000
       23 FE2    5px       -0.0373    0.1033   -0.0000    0.0000
       24 FE2    2py        0.0001    0.0000    0.0000   -0.0000
       25 FE2    3py       -0.0024   -0.0009   -0.0000    0.0000
       26 FE2    4py        0.9174    0.3309    0.0000   -0.0000
       27 FE2    5py        0.1033    0.0373    0.0000   -0.0000
       28 FE2    2pz       -0.0000   -0.0000    0.0000    0.0001
       29 FE2    3pz        0.0000    0.0000   -0.0056    0.0029
       30 FE2    4pz       -0.0000   -0.0000    0.9561   -0.0262
       31 FE2    5pz       -0.0000   -0.0000    0.1124    0.0055
       32 FE2    3d2-       0.0000   -0.0000   -0.0000   -0.0000
       33 FE2    4d2-      -0.0000    0.0000   -0.0000    0.0000
       34 FE2    3d1-      -0.0229   -0.0083   -0.0000    0.0000
       35 FE2    4d1-       0.0203    0.0073    0.0000    0.0000
       36 FE2    3d0        0.0000    0.0000   -0.0289    0.0071
       37 FE2    4d0       -0.0000   -0.0000    0.0253    0.0112
       38 FE2    3d1+       0.0083   -0.0229    0.0000   -0.0000
       39 FE2    4d1+      -0.0073    0.0203   -0.0000   -0.0000
       40 FE2    3d2+       0.0000    0.0000   -0.0000   -0.0000
       41 FE2    4d2+      -0.0000   -0.0000   -0.0000    0.0000
       42 FE2    4f3-      -0.0000   -0.0000    0.0000    0.0000
       43 FE2    4f2-      -0.0000    0.0000   -0.0000    0.0000
       44 FE2    4f1-       0.0007    0.0002    0.0000   -0.0000
       45 FE2    4f0       -0.0000   -0.0000    0.0004   -0.0004
       46 FE2    4f1+      -0.0002    0.0007   -0.0000    0.0000
       47 FE2    4f2+      -0.0000   -0.0000   -0.0000    0.0000
       48 FE2    4f3+       0.0000   -0.0000    0.0000    0.0000
--
 
 
  Input file to MOLDEN was generated!
 
 
++    Static properties:
      ------------------
 
 
      LoProp Charges per center
 

                   O1       FE2   
      Nuclear      8.0000  26.0000
      Electronic  -7.0142 -24.9858
 
      Total        0.9858   1.0142
--
 
 
      All orbitals with orbital energies smaller than  E(LUMO)+0.5 are printed
 
++    Molecular orbitals:
      -------------------
 
      Title: UHF orbitals (beta)

      Molecular orbitals for symmetry species 1: a  
 
          Orbital            1         2         3         4         5         6         7         8         9        10    
          Energy         -263.9373  -32.6305  -27.7046  -27.7039  -27.7039  -21.4932   -4.3767   -2.9110   -2.8594   -2.8594
          Occ. No.          1.0000    1.0000    1.0000    1.0000    1.0000    1.0000    1.0000    1.0000    1.0000    1.0000
 
        1 O1     1s        -0.0000    0.0000    0.0000    0.0000    0.0000    1.0000    0.0000   -0.0000   -0.0000    0.0000
        2 O1     2s         0.0000    0.0000    0.0001    0.0000    0.0000   -0.0018    0.0003    0.0002   -0.0000    0.0000
        3 O1     3s         0.0000   -0.0000    0.0001    0.0000    0.0000    0.0003    0.0002   -0.0000   -0.0000    0.0000
        4 O1     2px        0.0000    0.0000    0.0000    0.0000   -0.0000    0.0000   -0.0000    0.0000    0.0003   -0.0001
        5 O1     3px        0.0000    0.0000    0.0000    0.0000   -0.0000   -0.0000   -0.0000   -0.0000    0.0000   -0.0000
        6 O1     2py       -0.0000   -0.0000   -0.0000    0.0000    0.0000   -0.0000    0.0000   -0.0000    0.0001    0.0003
        7 O1     3py       -0.0000   -0.0000   -0.0000    0.0000    0.0000    0.0000    0.0000    0.0000    0.0000    0.0000
        8 O1     2pz       -0.0000    0.0000   -0.0000   -0.0000   -0.0000   -0.0001    0.0002    0.0002    0.0000   -0.0000
        9 O1     3pz       -0.0000    0.0000   -0.0001   -0.0000   -0.0000   -0.0001    0.0005    0.0006    0.0000   -0.0000
       10 O1     3d2-       0.0000   -0.0000   -0.0000   -0.0000    0.0000   -0.0000   -0.0000   -0.0000    0.0000   -0.0000
       11 O1     3d1-      -0.0000    0.0000    0.0000   -0.0000   -0.0000   -0.0000   -0.0000   -0.0000   -0.0000   -0.0000
       12 O1     3d0        0.0000   -0.0000    0.0000    0.0000    0.0000    0.0015   -0.0002   -0.0001   -0.0000    0.0000
       13 O1     3d1+       0.0000   -0.0000   -0.0000   -0.0000    0.0000    0.0000    0.0000    0.0000   -0.0000    0.0000
       14 O1     3d2+      -0.0000   -0.0000   -0.0000    0.0000    0.0000   -0.0000   -0.0000   -0.0000   -0.0000   -0.0000
       15 FE2    1s         1.0000    0.0000   -0.0000   -0.0000   -0.0000   -0.0000   -0.0000    0.0000    0.0000   -0.0000
       16 FE2    2s        -0.0000    1.0000   -0.0008   -0.0000   -0.0000   -0.0000    0.0002   -0.0000    0.0000   -0.0000
       17 FE2    3s         0.0000   -0.0002    0.0000    0.0000    0.0000   -0.0000    1.0000   -0.0042   -0.0000    0.0000
       18 FE2    4s        -0.0000    0.0001   -0.0000   -0.0000   -0.0000   -0.0002    0.0076    0.0021    0.0000   -0.0000
       19 FE2    5s         0.0000   -0.0002   -0.0000   -0.0000   -0.0000   -0.0001   -0.0056   -0.0010   -0.0000    0.0000
       20 FE2    2px        0.0000    0.0000    0.0001    0.9553   -0.2957    0.0000    0.0000   -0.0000    0.0019   -0.0004
       21 FE2    3px        0.0000   -0.0000   -0.0000   -0.0018    0.0006    0.0000   -0.0000   -0.0000    0.9823   -0.1867
       22 FE2    4px       -0.0000    0.0000    0.0000    0.0003   -0.0001    0.0000    0.0000   -0.0000    0.0077   -0.0015
       23 FE2    5px        0.0000   -0.0000   -0.0000   -0.0008    0.0002    0.0000    0.0000    0.0000   -0.0086    0.0016
       24 FE2    2py       -0.0000   -0.0000   -0.0002    0.2957    0.9553   -0.0000   -0.0000    0.0000    0.0004    0.0019
       25 FE2    3py       -0.0000    0.0000    0.0000   -0.0006   -0.0018   -0.0000    0.0000    0.0001    0.1867    0.9823
       26 FE2    4py        0.0000   -0.0000   -0.0000    0.0001    0.0003   -0.0000   -0.0000    0.0000    0.0015    0.0077
       27 FE2    5py       -0.0000    0.0000    0.0000   -0.0002   -0.0008   -0.0000   -0.0000   -0.0000   -0.0016   -0.0086
       28 FE2    2pz        0.0000    0.0008    1.0000    0.0000    0.0002   -0.0000   -0.0000    0.0010    0.0000   -0.0000
       29 FE2    3pz       -0.0000    0.0000   -0.0010   -0.0000   -0.0000   -0.0000    0.0042    0.9997    0.0000   -0.0001
       30 FE2    4pz       -0.0000    0.0000    0.0002    0.0000    0.0000   -0.0002    0.0005    0.0108    0.0000   -0.0000
       31 FE2    5pz       -0.0000    0.0000   -0.0007   -0.0000   -0.0000   -0.0001   -0.0002   -0.0096   -0.0000    0.0000
       32 FE2    3d2-       0.0000    0.0000    0.0000    0.0000   -0.0000    0.0000   -0.0000   -0.0000   -0.0000    0.0000
       33 FE2    4d2-      -0.0000   -0.0000   -0.0000    0.0000   -0.0000    0.0000    0.0000    0.0000    0.0000   -0.0000
       34 FE2    3d1-       0.0000    0.0000   -0.0000    0.0000    0.0001   -0.0000    0.0000    0.0000    0.0003    0.0013
       35 FE2    4d1-       0.0000    0.0000    0.0000   -0.0000   -0.0000   -0.0000   -0.0000   -0.0000    0.0002    0.0008
       36 FE2    3d0        0.0000    0.0001    0.0001    0.0000    0.0000   -0.0000    0.0016    0.0036    0.0000   -0.0000
       37 FE2    4d0       -0.0000    0.0000   -0.0001   -0.0000   -0.0000   -0.0001    0.0003   -0.0004    0.0000   -0.0000
       38 FE2    3d1+      -0.0000   -0.0000    0.0000    0.0001   -0.0000    0.0000   -0.0000   -0.0000    0.0013   -0.0003
       39 FE2    4d1+      -0.0000   -0.0000   -0.0000   -0.0000    0.0000    0.0000    0.0000    0.0000    0.0008   -0.0002
       40 FE2    3d2+       0.0000    0.0000    0.0000   -0.0000   -0.0000    0.0000   -0.0000   -0.0000    0.0000    0.0000
       41 FE2    4d2+      -0.0000   -0.0000   -0.0000    0.0000   -0.0000    0.0000    0.0000    0.0000   -0.0000   -0.0000
       42 FE2    4f3-       0.0000   -0.0000    0.0000   -0.0000    0.0000    0.0000   -0.0000    0.0000   -0.0000   -0.0000
       43 FE2    4f2-       0.0000   -0.0000    0.0000    0.0000   -0.0000   -0.0000   -0.0000    0.0000    0.0000   -0.0000
       44 FE2    4f1-      -0.0000    0.0000   -0.0000    0.0002    0.0007   -0.0000    0.0000   -0.0000    0.0024    0.0127
       45 FE2    4f0       -0.0000    0.0000   -0.0011   -0.0000   -0.0000   -0.0000    0.0002   -0.0206    0.0000   -0.0000
       46 FE2    4f1+       0.0000   -0.0000    0.0000    0.0007   -0.0002    0.0000   -0.0000    0.0000    0.0127   -0.0024
       47 FE2    4f2+       0.0000   -0.0000    0.0000   -0.0000   -0.0000   -0.0000   -0.0000    0.0000   -0.0000   -0.0000
       48 FE2    4f3+       0.0000   -0.0000    0.0000   -0.0000    0.0000    0.0000   -0.0000    0.0000   -0.0000    0.0000
 
          Orbital           11        12        13        14        15        16        17        18        19        20    
          Energy           -1.8741   -1.3944   -0.7587   -0.7587   -0.5657   -0.5657   -0.3689   -0.2194   -0.2101   -0.2101
          Occ. No.          1.0000    1.0000    1.0000    1.0000    0.0000    0.0000    0.0000    0.0000    0.0000    0.0000
 
        1 O1     1s         0.0019    0.0001   -0.0000    0.0000    0.0000   -0.0000   -0.0087   -0.0075   -0.0000   -0.0000
        2 O1     2s         0.9987    0.0114   -0.0000    0.0000    0.0000   -0.0000   -0.0955   -0.0820   -0.0000   -0.0000
        3 O1     3s        -0.0441   -0.0078    0.0000   -0.0000   -0.0000    0.0000    0.0129    0.0489    0.0000    0.0000
        4 O1     2px        0.0000    0.0000    0.0699   -0.0189   -0.2596    0.9539   -0.0000   -0.0000   -0.0652    0.0253
        5 O1     3px       -0.0000   -0.0000    0.0074   -0.0020   -0.0342    0.1258   -0.0000   -0.0000    0.0471   -0.0183
        6 O1     2py       -0.0000   -0.0001    0.0189    0.0699    0.9539    0.2596    0.0000    0.0000   -0.0253   -0.0652
        7 O1     3py        0.0000    0.0000    0.0020    0.0074    0.1258    0.0342    0.0000    0.0000    0.0183    0.0471
        8 O1     2pz       -0.0126    0.9914   -0.0000    0.0000    0.0001   -0.0000    0.0609    0.0480   -0.0000   -0.0000
        9 O1     3pz       -0.0069   -0.1262   -0.0000    0.0000    0.0000   -0.0000   -0.0474   -0.1267   -0.0000   -0.0000
       10 O1     3d2-      -0.0000   -0.0000    0.0000   -0.0000    0.0000   -0.0000    0.0000    0.0000    0.0000   -0.0000
       11 O1     3d1-      -0.0000    0.0000   -0.0004   -0.0017   -0.0037   -0.0010    0.0000    0.0000   -0.0022   -0.0057
       12 O1     3d0        0.0561   -0.0033    0.0000   -0.0000   -0.0000    0.0000    0.0030    0.0060    0.0000    0.0000
       13 O1     3d1+       0.0000   -0.0000   -0.0017    0.0004    0.0010   -0.0037   -0.0000   -0.0000   -0.0057    0.0022
       14 O1     3d2+      -0.0000   -0.0000   -0.0000   -0.0000    0.0000    0.0000    0.0000    0.0000   -0.0000   -0.0000
       15 FE2    1s        -0.0000   -0.0000   -0.0000    0.0000    0.0000   -0.0000   -0.0000   -0.0001   -0.0000   -0.0000
       16 FE2    2s        -0.0001   -0.0001   -0.0000    0.0000    0.0000   -0.0000   -0.0004   -0.0010   -0.0000   -0.0000
       17 FE2    3s        -0.0007    0.0001    0.0000   -0.0000    0.0000   -0.0000   -0.0085   -0.0039   -0.0000   -0.0000
       18 FE2    4s        -0.0040   -0.0050    0.0000   -0.0000   -0.0000    0.0000    0.9607   -0.2653   -0.0000   -0.0000
       19 FE2    5s        -0.0028   -0.0002   -0.0000    0.0000   -0.0000    0.0000    0.0951   -0.0230   -0.0000   -0.0000
       20 FE2    2px        0.0000    0.0000   -0.0001    0.0000    0.0000   -0.0001    0.0000   -0.0000   -0.0002    0.0001
       21 FE2    3px       -0.0000    0.0000   -0.0018    0.0005    0.0005   -0.0020   -0.0000   -0.0000   -0.0064    0.0025
       22 FE2    4px        0.0000    0.0000    0.0356   -0.0097   -0.0005    0.0020   -0.0000    0.0000    0.9157   -0.3560
       23 FE2    5px        0.0000    0.0000    0.0018   -0.0005    0.0000   -0.0000   -0.0000    0.0000    0.1172   -0.0456
       24 FE2    2py       -0.0000   -0.0000   -0.0000   -0.0001   -0.0001   -0.0000   -0.0000    0.0000   -0.0001   -0.0002
       25 FE2    3py        0.0000   -0.0000   -0.0005   -0.0018   -0.0020   -0.0005    0.0000    0.0000   -0.0025   -0.0064
       26 FE2    4py       -0.0000   -0.0000    0.0097    0.0356    0.0020    0.0005    0.0000   -0.0000    0.3560    0.9157
       27 FE2    5py       -0.0000   -0.0000    0.0005    0.0018   -0.0000   -0.0000    0.0000   -0.0000    0.0456    0.1172
       28 FE2    2pz       -0.0000    0.0000   -0.0000    0.0000    0.0000   -0.0000   -0.0001   -0.0003   -0.0000   -0.0000
       29 FE2    3pz       -0.0012    0.0016   -0.0000    0.0000    0.0000   -0.0000   -0.0048   -0.0117   -0.0000   -0.0000
       30 FE2    4pz       -0.0046   -0.0029    0.0000   -0.0000   -0.0000    0.0000    0.2154    0.9146    0.0000    0.0000
       31 FE2    5pz       -0.0017   -0.0004    0.0000   -0.0000   -0.0000    0.0000    0.0304    0.1162    0.0000    0.0000
       32 FE2    3d2-       0.0000   -0.0000    0.0001   -0.0000    0.0000   -0.0000   -0.0000   -0.0000   -0.0000    0.0000
       33 FE2    4d2-      -0.0000    0.0000    0.0000   -0.0000    0.0000   -0.0000   -0.0000   -0.0000   -0.0000    0.0000
       34 FE2    3d1-      -0.0000    0.0000    0.2596    0.9582   -0.0874   -0.0238    0.0000    0.0000   -0.0140   -0.0361
       35 FE2    4d1-      -0.0000   -0.0000    0.0193    0.0711   -0.0050   -0.0014    0.0000    0.0000    0.0061    0.0158
       36 FE2    3d0       -0.0007   -0.0009    0.0000   -0.0001    0.0000   -0.0000    0.0193    0.0727    0.0000    0.0000
       37 FE2    4d0       -0.0018   -0.0005    0.0000   -0.0000    0.0000   -0.0000    0.0121    0.0423    0.0000    0.0000
       38 FE2    3d1+       0.0000   -0.0000    0.9582   -0.2596    0.0238   -0.0874   -0.0000   -0.0000   -0.0361    0.0140
       39 FE2    4d1+       0.0000    0.0000    0.0711   -0.0193    0.0014   -0.0050   -0.0000   -0.0000    0.0158   -0.0061
       40 FE2    3d2+       0.0000   -0.0000   -0.0000   -0.0000    0.0000    0.0000   -0.0000   -0.0000    0.0000    0.0000
       41 FE2    4d2+      -0.0000    0.0000   -0.0000   -0.0000    0.0000    0.0000   -0.0000   -0.0000    0.0000    0.0000
       42 FE2    4f3-       0.0000   -0.0000    0.0000   -0.0000    0.0000    0.0000    0.0000    0.0000    0.0000    0.0000
       43 FE2    4f2-      -0.0000   -0.0000    0.0000   -0.0000    0.0000   -0.0000    0.0000    0.0000   -0.0000    0.0000
       44 FE2    4f1-      -0.0000    0.0000    0.0006    0.0023    0.0003    0.0001   -0.0000   -0.0000    0.0006    0.0015
       45 FE2    4f0       -0.0001   -0.0001    0.0000   -0.0000   -0.0000    0.0000   -0.0004   -0.0008   -0.0000   -0.0000
       46 FE2    4f1+       0.0000   -0.0000    0.0023   -0.0006   -0.0001    0.0003    0.0000    0.0000    0.0015   -0.0006
       47 FE2    4f2+      -0.0000   -0.0000   -0.0000   -0.0000    0.0000    0.0000    0.0000    0.0000    0.0000    0.0000
       48 FE2    4f3+       0.0000   -0.0000   -0.0000   -0.0000   -0.0000    0.0000    0.0000    0.0000    0.0000   -0.0000
 
          Orbital           21        22        23    
          Energy           -0.1117   -0.0793   -0.0793
          Occ. No.          0.0000    0.0000    0.0000
 
        1 O1     1s        -0.0131    0.0000    0.0000
        2 O1     2s        -0.1147    0.0000    0.0000
        3 O1     3s         0.0293   -0.0000   -0.0000
        4 O1     2px        0.0000    0.0000   -0.0000
        5 O1     3px        0.0000   -0.0000    0.0000
        6 O1     2py       -0.0000   -0.0000   -0.0000
        7 O1     3py       -0.0000    0.0000    0.0000
        8 O1     2pz        0.0364   -0.0000   -0.0000
        9 O1     3pz        0.0883   -0.0000   -0.0000
       10 O1     3d2-       0.0000    0.0011   -0.0003
       11 O1     3d1-       0.0000   -0.0000   -0.0000
       12 O1     3d0       -0.0108   -0.0000    0.0000
       13 O1     3d1+      -0.0000    0.0000   -0.0000
       14 O1     3d2+       0.0000    0.0003    0.0011
       15 FE2    1s         0.0001   -0.0000   -0.0000
       16 FE2    2s         0.0009   -0.0000   -0.0000
       17 FE2    3s         0.0100   -0.0000   -0.0000
       18 FE2    4s        -0.0638    0.0000   -0.0000
       19 FE2    5s         0.9997   -0.0000   -0.0000
       20 FE2    2px        0.0000    0.0000   -0.0000
       21 FE2    3px        0.0000    0.0000   -0.0000
       22 FE2    4px       -0.0000    0.0000   -0.0000
       23 FE2    5px       -0.0000    0.0000   -0.0000
       24 FE2    2py       -0.0000   -0.0000   -0.0000
       25 FE2    3py       -0.0000   -0.0000   -0.0000
       26 FE2    4py        0.0000   -0.0000   -0.0000
       27 FE2    5py        0.0000   -0.0000   -0.0000
       28 FE2    2pz        0.0001   -0.0000   -0.0000
       29 FE2    3pz        0.0036   -0.0000   -0.0000
       30 FE2    4pz        0.0340    0.0000   -0.0000
       31 FE2    5pz        0.0121    0.0000   -0.0000
       32 FE2    3d2-       0.0000    0.9207   -0.2537
       33 FE2    4d2-       0.0000    0.2859   -0.0788
       34 FE2    3d1-      -0.0000    0.0000    0.0000
       35 FE2    4d1-      -0.0000    0.0000    0.0000
       36 FE2    3d0       -0.0328   -0.0000    0.0000
       37 FE2    4d0       -0.0089   -0.0000   -0.0000
       38 FE2    3d1+       0.0000   -0.0001    0.0000
       39 FE2    4d1+       0.0000   -0.0000    0.0000
       40 FE2    3d2+       0.0000    0.2537    0.9207
       41 FE2    4d2+       0.0000    0.0788    0.2859
       42 FE2    4f3-      -0.0000   -0.0000    0.0000
       43 FE2    4f2-      -0.0000    0.0018   -0.0005
       44 FE2    4f1-       0.0000    0.0000    0.0000
       45 FE2    4f0       -0.0002   -0.0000    0.0000
       46 FE2    4f1+      -0.0000   -0.0000    0.0000
       47 FE2    4f2+      -0.0000    0.0005    0.0018
       48 FE2    4f3+      -0.0000   -0.0000   -0.0000
--
 
 
++    Molecular charges:
      ------------------
 
      Mulliken charges per centre and basis function type
      ---------------------------------------------------
 
                            O1                      FE2   
                     alpha        beta       alpha        beta
      1s           1.0000      1.0000      1.0000      1.0000
      2s           0.9931      0.9961      1.0000      1.0000
      2px          0.9795      0.0061      1.0000      1.0000
      2pz          0.0029      0.9838      1.0000      1.0000
      2py          0.9795      0.0061      1.0000      1.0000
      3s           0.0048      0.0021      0.9999      0.9999
      3px          0.0203      0.0004      0.9999      0.9997
      3pz         -0.0000      0.0156      0.9999      0.9994
      3py          0.0203      0.0004      0.9999      0.9997
      4s           0.0000      0.0000      0.0004      0.0000
      3d2+         0.0000      0.0000      1.0000      0.0000
      3d1+         0.0000      0.0000      0.9990      0.9862
      3d0          0.0025      0.0031      0.9951      0.0000
      3d1-         0.0000      0.0000      0.9990      0.9862
      3d2-         0.0000      0.0000      1.0000      0.0000
      4px          0.0000      0.0000      0.0005      0.0016
      4pz          0.0000      0.0000      0.0013     -0.0001
      4py          0.0000      0.0000      0.0005      0.0016
      5s           0.0000      0.0000     -0.0003     -0.0003
      4d2+         0.0000      0.0000      0.0000      0.0000
      4d1+         0.0000      0.0000      0.0006      0.0057
      4d0          0.0000      0.0000      0.0003     -0.0001
      4d1-         0.0000      0.0000      0.0006      0.0057
      4d2-         0.0000      0.0000      0.0000      0.0000
      5px          0.0000      0.0000      0.0000      0.0001
      5pz          0.0000      0.0000     -0.0001     -0.0001
      5py          0.0000      0.0000      0.0000      0.0001
      4f3+         0.0000      0.0000      0.0000      0.0000
      4f2+         0.0000      0.0000      0.0000      0.0000
      4f1+         0.0000      0.0000      0.0001      0.0002
      4f0          0.0000      0.0000      0.0000      0.0004
      4f1-         0.0000      0.0000      0.0001      0.0002
      4f2-         0.0000      0.0000      0.0000      0.0000
      4f3-         0.0000      0.0000      0.0000      0.0000
      Total        4.0030      3.0139     13.9970     10.9861
      Total              7.0168                 24.9832
 
      Charge            0.9832                  1.0168
 
      Total electronic charge=   32.000000
 
      Total            charge=    2.000000
--
 
 
  Input file to MOLDEN was generated!
 
 
++    Static properties:
      ------------------
 
 
      LoProp Charges per center
 

                   O1       FE2   
      Nuclear      8.0000  26.0000
      Electronic  -7.0142 -24.9858
 
      Total        0.9858   1.0142
--
 
 
++    Natural Bond Order analysis
      ---------------------------
      Based on LoProp computed density
      -------------------------------------------------------------------------------------
      Atom A       Atom B       Bond Order
      -------------------------------------------------------------------------------------
      NBO located     19.999 core electrons.
      NBO located      5.980 lone pair electrons.
      NBO located      1.002 non-bonded electrons on atom O1        
      NBO located      1.005 non-bonded electrons on atom O1        
      NBO located      1.005 non-bonded electrons on atom O1        
      NBO located      0.997 non-bonded electrons on atom FE2       
      NBO located      1.000 non-bonded electrons on atom FE2       
      NBO located      1.000 non-bonded electrons on atom FE2       
      The remaining    0.010 electrons are to be considered as diffuse
--
 
 
++    Molecular orbitals:
      -------------------
 
      Title: Natural orbitals

      Molecular orbitals for symmetry species 1: a  
 
          Orbital            1         2         3         4         5         6         7         8         9        10    
          Energy         -263.9380  -32.4145  -21.7607  -27.3676  -27.6448  -27.6447   -4.7709   -3.1221   -3.1351   -3.1352
          Occ. No.          2.0000    2.0000    2.0000    2.0000    2.0000    2.0000    2.0000    1.9998    1.9998    1.9998
 
        1 O1     1s        -0.0000    0.0166   -0.9769    0.2093   -0.0000    0.0000    0.0265    0.0004   -0.0000    0.0000
        2 O1     2s         0.0000   -0.0007    0.0296   -0.0064    0.0000   -0.0000    0.0022    0.0019   -0.0000    0.0000
        3 O1     3s        -0.0000   -0.0000   -0.0013    0.0003    0.0000    0.0000   -0.0001   -0.0002    0.0000   -0.0000
        4 O1     2px        0.0000   -0.0000   -0.0000    0.0000    0.0000   -0.0000   -0.0000   -0.0000    0.0006   -0.0027
        5 O1     3px       -0.0000    0.0000    0.0000   -0.0000   -0.0000    0.0000    0.0000    0.0000   -0.0000    0.0002
        6 O1     2py       -0.0000    0.0000    0.0000   -0.0000   -0.0000   -0.0000    0.0000    0.0000   -0.0027   -0.0006
        7 O1     3py        0.0000   -0.0000   -0.0000    0.0000    0.0000    0.0000   -0.0000   -0.0000    0.0002    0.0000
        8 O1     2pz       -0.0000    0.0001   -0.0005    0.0001   -0.0000    0.0000   -0.0005   -0.0001   -0.0000    0.0000
        9 O1     3pz       -0.0000   -0.0000   -0.0001   -0.0000   -0.0000   -0.0000    0.0006    0.0006   -0.0000    0.0000
       10 O1     3d2-       0.0000    0.0000    0.0000    0.0000    0.0000   -0.0000   -0.0000   -0.0000    0.0000   -0.0000
       11 O1     3d1-       0.0000   -0.0000   -0.0000    0.0000   -0.0000   -0.0000   -0.0000   -0.0000    0.0000    0.0000
       12 O1     3d0        0.0000    0.0000    0.0000   -0.0000    0.0000   -0.0000   -0.0001   -0.0000    0.0000   -0.0000
       13 O1     3d1+      -0.0000    0.0000    0.0000   -0.0000    0.0000   -0.0000    0.0000    0.0000   -0.0000    0.0000
       14 O1     3d2+       0.0000    0.0000    0.0000    0.0000    0.0000    0.0000   -0.0000   -0.0000    0.0000    0.0000
       15 FE2    1s         1.0000   -0.0001   -0.0000   -0.0000    0.0000   -0.0000    0.0002    0.0000   -0.0000    0.0000
       16 FE2    2s         0.0001    0.9953    0.0217    0.0104    0.0000   -0.0000    0.0934   -0.0001    0.0000   -0.0000
       17 FE2    3s        -0.0002   -0.0940    0.0269    0.0078    0.0000   -0.0000    0.9951   -0.0054    0.0000   -0.0000
       18 FE2    4s        -0.0000   -0.0006    0.0001   -0.0001    0.0000   -0.0000    0.0071    0.0021    0.0000   -0.0000
       19 FE2    5s         0.0000    0.0005   -0.0002    0.0000   -0.0000    0.0000   -0.0048   -0.0010    0.0000   -0.0000
       20 FE2    2px        0.0000    0.0000    0.0000    0.0000   -0.2168    0.9740    0.0000   -0.0000   -0.0141    0.0641
       21 FE2    3px       -0.0000    0.0000   -0.0000   -0.0000    0.0143   -0.0641    0.0000   -0.0000   -0.2150    0.9735
       22 FE2    4px        0.0000   -0.0000   -0.0000    0.0000    0.0001   -0.0003   -0.0000   -0.0000   -0.0008    0.0038
       23 FE2    5px        0.0000   -0.0000   -0.0000    0.0000   -0.0001    0.0003   -0.0000    0.0000    0.0014   -0.0062
       24 FE2    2py       -0.0000   -0.0000   -0.0000   -0.0000    0.9740    0.2168   -0.0000    0.0000    0.0641    0.0142
       25 FE2    3py        0.0000   -0.0000    0.0000    0.0000   -0.0641   -0.0143   -0.0000    0.0002    0.9735    0.2150
       26 FE2    4py       -0.0000    0.0000    0.0000   -0.0000   -0.0003   -0.0001    0.0000    0.0000    0.0038    0.0008
       27 FE2    5py       -0.0000    0.0000    0.0000   -0.0000    0.0003    0.0001    0.0000   -0.0000   -0.0062   -0.0014
       28 FE2    2pz        0.0000   -0.0134    0.2085    0.9758    0.0000    0.0000   -0.0142    0.0631   -0.0000    0.0000
       29 FE2    3pz       -0.0000    0.0004   -0.0127   -0.0617    0.0000   -0.0000    0.0062    0.9979   -0.0002    0.0000
       30 FE2    4pz       -0.0000   -0.0000   -0.0001   -0.0005    0.0000   -0.0000    0.0008    0.0086   -0.0000    0.0000
       31 FE2    5pz       -0.0000    0.0001    0.0000    0.0003   -0.0000    0.0000   -0.0002   -0.0076    0.0000   -0.0000
       32 FE2    3d2-       0.0000   -0.0000   -0.0000    0.0000   -0.0000    0.0000   -0.0000   -0.0000    0.0000   -0.0000
       33 FE2    4d2-       0.0000   -0.0000   -0.0000    0.0000    0.0000   -0.0000   -0.0000   -0.0000    0.0000   -0.0000
       34 FE2    3d1-      -0.0000    0.0000    0.0000   -0.0000    0.0000    0.0000    0.0000    0.0000   -0.0406   -0.0090
       35 FE2    4d1-      -0.0000    0.0000    0.0000   -0.0000   -0.0001   -0.0000    0.0000    0.0000   -0.0017   -0.0004
       36 FE2    3d0       -0.0000   -0.0001    0.0000   -0.0001   -0.0000    0.0000    0.0016    0.0037    0.0000   -0.0000
       37 FE2    4d0       -0.0000   -0.0000    0.0000   -0.0001    0.0000   -0.0000    0.0026    0.0003    0.0000   -0.0000
       38 FE2    3d1+       0.0000   -0.0000   -0.0000    0.0000   -0.0000    0.0000   -0.0000   -0.0000    0.0090   -0.0406
       39 FE2    4d1+       0.0000   -0.0000   -0.0000    0.0000    0.0000   -0.0001   -0.0000   -0.0000    0.0004   -0.0017
       40 FE2    3d2+       0.0000   -0.0000   -0.0000    0.0000   -0.0000   -0.0000   -0.0000   -0.0000    0.0000    0.0000
       41 FE2    4d2+       0.0000   -0.0000   -0.0000    0.0000    0.0000    0.0000   -0.0000   -0.0000    0.0000    0.0000
       42 FE2    4f3-      -0.0000   -0.0000    0.0000    0.0000    0.0000    0.0000   -0.0000    0.0000   -0.0000   -0.0000
       43 FE2    4f2-      -0.0000   -0.0000   -0.0000    0.0000   -0.0000    0.0000    0.0000    0.0000   -0.0000    0.0000
       44 FE2    4f1-      -0.0000    0.0000    0.0000    0.0000    0.0001    0.0000    0.0000   -0.0000    0.0024    0.0005
       45 FE2    4f0        0.0000   -0.0000    0.0000    0.0001   -0.0000    0.0000    0.0000   -0.0112    0.0000   -0.0000
       46 FE2    4f1+       0.0000   -0.0000   -0.0000   -0.0000   -0.0000    0.0001   -0.0000    0.0000   -0.0005    0.0024
       47 FE2    4f2+      -0.0000   -0.0000   -0.0000    0.0000   -0.0000   -0.0000   -0.0000    0.0000   -0.0000   -0.0000
       48 FE2    4f3+      -0.0000   -0.0000    0.0000    0.0000   -0.0000    0.0000   -0.0000    0.0000    0.0000   -0.0000
 
          Orbital           11        12        13        14        15        16        17        18        19        20    
          Energy           -0.8184   -0.8184   -1.9704   -0.7296   -0.9740   -0.9740   -0.4693   -0.4693   -0.6770    1.3870
          Occ. No.          1.9983    1.9983    1.9941    1.0592    1.0000    1.0000    1.0000    1.0000    0.9408    0.0059
 
        1 O1     1s        -0.0000   -0.0000   -0.0303   -0.0011    0.0000   -0.0000    0.0000    0.0000    0.0010    0.0005
        2 O1     2s        -0.0000   -0.0000   -0.9988   -0.0242   -0.0000    0.0000    0.0000    0.0000    0.0034    0.0157
        3 O1     3s         0.0000    0.0000    0.0568    0.0038    0.0000   -0.0000    0.0000    0.0000    0.0077    0.2342
        4 O1     2px        0.0692    0.0193   -0.0000   -0.0000    0.9536   -0.2550   -0.0000    0.0000   -0.0000    0.0000
        5 O1     3px       -0.0028   -0.0008    0.0000    0.0000   -0.1376    0.0368   -0.0000    0.0000    0.0000    0.0000
        6 O1     2py        0.0193   -0.0692    0.0000    0.0000    0.2550    0.9536   -0.0000   -0.0000    0.0001   -0.0000
        7 O1     3py       -0.0008    0.0028   -0.0000   -0.0000   -0.0368   -0.1376   -0.0000   -0.0000   -0.0000   -0.0000
        8 O1     2pz       -0.0000   -0.0000    0.0163   -0.7088   -0.0000    0.0001   -0.0000   -0.0000   -0.6933   -0.0032
        9 O1     3pz        0.0000    0.0000    0.0042    0.0868    0.0000   -0.0000   -0.0000   -0.0000    0.0920   -0.0398
       10 O1     3d2-       0.0000    0.0000    0.0000    0.0000    0.0000   -0.0000   -0.0000    0.0000    0.0000   -0.0000
       11 O1     3d1-      -0.0003    0.0012    0.0000   -0.0000   -0.0011   -0.0043   -0.0000   -0.0000    0.0000   -0.0001
       12 O1     3d0        0.0000    0.0000   -0.0031    0.0034    0.0000   -0.0000   -0.0000   -0.0000    0.0008    0.9756
       13 O1     3d1+      -0.0012   -0.0003   -0.0000    0.0000   -0.0043    0.0011   -0.0000    0.0000   -0.0000    0.0000
       14 O1     3d2+      -0.0000    0.0000    0.0000    0.0000   -0.0000   -0.0000    0.0000    0.0000    0.0000   -0.0000
       15 FE2    1s        -0.0000   -0.0000    0.0000    0.0000    0.0000   -0.0000   -0.0000   -0.0000    0.0000   -0.0001
       16 FE2    2s         0.0000    0.0000    0.0002   -0.0000    0.0000   -0.0000   -0.0000   -0.0000    0.0001   -0.0008
       17 FE2    3s         0.0000    0.0000    0.0035   -0.0020    0.0000   -0.0000   -0.0000   -0.0000    0.0008   -0.0049
       18 FE2    4s         0.0000    0.0000    0.0030    0.0181    0.0000   -0.0000   -0.0000   -0.0000   -0.0119   -0.0197
       19 FE2    5s        -0.0000   -0.0000    0.0026   -0.0000   -0.0000    0.0000    0.0000    0.0000    0.0003   -0.0030
       20 FE2    2px        0.0026    0.0007   -0.0000    0.0000    0.0000   -0.0000   -0.0000    0.0000   -0.0000    0.0000
       21 FE2    3px        0.0400    0.0111   -0.0000    0.0000   -0.0002    0.0000   -0.0000    0.0000   -0.0000    0.0000
       22 FE2    4px        0.0286    0.0080   -0.0000   -0.0000    0.0010   -0.0003    0.0000   -0.0000    0.0000    0.0000
       23 FE2    5px        0.0011    0.0003   -0.0000   -0.0000    0.0007   -0.0002    0.0000   -0.0000   -0.0000    0.0000
       24 FE2    2py        0.0007   -0.0026    0.0000   -0.0000    0.0000    0.0000   -0.0000   -0.0000    0.0000   -0.0000
       25 FE2    3py        0.0111   -0.0400    0.0000   -0.0000   -0.0000   -0.0002   -0.0000   -0.0000    0.0000   -0.0000
       26 FE2    4py        0.0080   -0.0286    0.0000    0.0000    0.0003    0.0010    0.0000    0.0000   -0.0000   -0.0000
       27 FE2    5py        0.0003   -0.0011    0.0000    0.0000    0.0002    0.0007    0.0000    0.0000    0.0000   -0.0000
       28 FE2    2pz        0.0000    0.0000    0.0000   -0.0001    0.0000   -0.0000   -0.0000   -0.0000    0.0000   -0.0002
       29 FE2    3pz        0.0000    0.0000    0.0027   -0.0041   -0.0000    0.0000    0.0000    0.0000    0.0016   -0.0051
       30 FE2    4pz        0.0000    0.0000    0.0034    0.0278   -0.0000    0.0000   -0.0000   -0.0000   -0.0252   -0.0211
       31 FE2    5pz        0.0000    0.0000    0.0014    0.0014   -0.0000    0.0000   -0.0000   -0.0000   -0.0009   -0.0045
       32 FE2    3d2-       0.0001    0.0000   -0.0000   -0.0000   -0.0000    0.0000   -0.2592    0.9658    0.0000   -0.0000
       33 FE2    4d2-       0.0000    0.0000   -0.0000   -0.0000   -0.0000    0.0000    0.0004   -0.0016    0.0000    0.0000
       34 FE2    3d1-       0.2670   -0.9577    0.0000    0.0001   -0.0199   -0.0745    0.0000    0.0000   -0.0001    0.0000
       35 FE2    4d1-       0.0133   -0.0476    0.0000    0.0000   -0.0003   -0.0010   -0.0000   -0.0000   -0.0000   -0.0000
       36 FE2    3d0        0.0000    0.0001   -0.0008    0.6858   -0.0000    0.0000   -0.0000   -0.0000   -0.7264   -0.0273
       37 FE2    4d0        0.0000    0.0000    0.0014    0.0127   -0.0000    0.0000    0.0000    0.0000   -0.0128   -0.0070
       38 FE2    3d1+       0.9577    0.2670   -0.0000   -0.0000   -0.0745    0.0199    0.0000   -0.0001    0.0000   -0.0000
       39 FE2    4d1+       0.0476    0.0133   -0.0000   -0.0000   -0.0010    0.0003   -0.0000    0.0000    0.0000    0.0000
       40 FE2    3d2+      -0.0000    0.0000   -0.0000   -0.0000    0.0000    0.0000    0.9658    0.2592    0.0000   -0.0000
       41 FE2    4d2+      -0.0000    0.0000   -0.0000   -0.0000    0.0000    0.0000   -0.0016   -0.0004    0.0000    0.0000
       42 FE2    4f3-      -0.0000    0.0000    0.0000   -0.0000    0.0000    0.0000    0.0000   -0.0000    0.0000   -0.0000
       43 FE2    4f2-       0.0000    0.0000   -0.0000   -0.0000   -0.0000    0.0000   -0.0004    0.0015    0.0000    0.0000
       44 FE2    4f1-       0.0006   -0.0023    0.0000    0.0000   -0.0000   -0.0001    0.0000    0.0000   -0.0000   -0.0000
       45 FE2    4f0        0.0000    0.0000    0.0000    0.0017   -0.0000    0.0000   -0.0000   -0.0000   -0.0017   -0.0006
       46 FE2    4f1+       0.0023    0.0006   -0.0000   -0.0000   -0.0001    0.0000    0.0000   -0.0000    0.0000    0.0000
       47 FE2    4f2+      -0.0000    0.0000   -0.0000   -0.0000    0.0000    0.0000    0.0015    0.0004    0.0000   -0.0000
       48 FE2    4f3+      -0.0000   -0.0000    0.0000   -0.0000    0.0000   -0.0000   -0.0000   -0.0000    0.0000   -0.0000
 
          Orbital           21        22        23        24        25        26        27        28        29        30    
          Energy            0.3939    0.3939    3.4167    3.4167    3.4536    0.6019    1.9827    1.9827    2.0547    0.3872
          Occ. No.          0.0017    0.0017    0.0002    0.0002    0.0002    0.0000    0.0000    0.0000    0.0000    0.0000
 
        1 O1     1s         0.0000   -0.0000   -0.0000    0.0000   -0.0010    0.0116    0.0000   -0.0000   -0.0125   -0.0098
        2 O1     2s         0.0000   -0.0000   -0.0000    0.0000   -0.0102    0.1177    0.0000   -0.0000   -0.1354   -0.1548
        3 O1     3s         0.0000   -0.0000    0.0000   -0.0000   -0.0056    0.0954    0.0000   -0.0000   -0.2758   -0.9102
        4 O1     2px       -0.0062    0.0223    0.0016   -0.0072    0.0000   -0.0000    0.0059   -0.0252   -0.0000   -0.0000
        5 O1     3px       -0.0968    0.3492    0.0098   -0.0448    0.0000   -0.0000    0.0165   -0.0708   -0.0000   -0.0000
        6 O1     2py        0.0223    0.0062   -0.0072   -0.0016   -0.0000    0.0000   -0.0252   -0.0059    0.0000    0.0000
        7 O1     3py        0.3492    0.0968   -0.0448   -0.0098   -0.0000    0.0001   -0.0708   -0.0165    0.0000    0.0001
        8 O1     2pz       -0.0000    0.0000   -0.0000    0.0000    0.0037   -0.0665   -0.0000    0.0000    0.0783    0.1010
        9 O1     3pz        0.0000   -0.0000   -0.0000    0.0000   -0.0110    0.0058   -0.0000    0.0000    0.1705    0.2166
       10 O1     3d2-      -0.0000    0.0000   -0.0000    0.0000    0.0000   -0.0000   -0.0000    0.0000   -0.0000   -0.0000
       11 O1     3d1-      -0.0165   -0.0046    0.0021    0.0005    0.0000   -0.0000    0.0068    0.0016   -0.0000   -0.0000
       12 O1     3d0        0.0000   -0.0000   -0.0000    0.0000   -0.0072    0.0550    0.0000   -0.0000    0.0040    0.1250
       13 O1     3d1+       0.0046   -0.0165   -0.0005    0.0021   -0.0000    0.0000   -0.0016    0.0068    0.0000    0.0000
       14 O1     3d2+      -0.0000   -0.0000   -0.0000    0.0000    0.0000   -0.0000   -0.0000   -0.0000   -0.0000   -0.0000
       15 FE2    1s         0.0000   -0.0000   -0.0000    0.0000   -0.0000   -0.0000   -0.0000    0.0000    0.0002    0.0004
       16 FE2    2s         0.0000   -0.0000   -0.0000    0.0000   -0.0001    0.0001   -0.0000    0.0000    0.0017    0.0026
       17 FE2    3s         0.0000   -0.0000   -0.0000    0.0000   -0.0005   -0.0013   -0.0000    0.0000    0.0093    0.0106
       18 FE2    4s        -0.0004    0.0000    0.0000   -0.0000    0.0009    0.2008   -0.0000    0.0000    0.0993    0.5209
       19 FE2    5s         0.0001   -0.0000   -0.0000    0.0000   -0.0041   -0.3116    0.0000   -0.0000    0.1045    0.0080
       20 FE2    2px        0.0000   -0.0001    0.0001   -0.0003   -0.0000    0.0000   -0.0000    0.0000   -0.0000    0.0000
       21 FE2    3px        0.0011   -0.0039    0.0010   -0.0046   -0.0000    0.0000   -0.0015    0.0064   -0.0000    0.0000
       22 FE2    4px       -0.0694    0.2502   -0.0458    0.2101    0.0000   -0.0000    0.0396   -0.1697    0.0000   -0.0000
       23 FE2    5px       -0.0038    0.0138    0.0500   -0.2293   -0.0000   -0.0000   -0.2153    0.9230   -0.0000   -0.0000
       24 FE2    2py       -0.0001   -0.0000   -0.0003   -0.0001    0.0000   -0.0000    0.0000    0.0000    0.0000   -0.0000
       25 FE2    3py       -0.0039   -0.0011   -0.0046   -0.0010    0.0000   -0.0000    0.0064    0.0015    0.0000   -0.0000
       26 FE2    4py        0.2502    0.0694    0.2101    0.0458   -0.0000    0.0000   -0.1697   -0.0396   -0.0000    0.0001
       27 FE2    5py        0.0138    0.0038   -0.2293   -0.0500    0.0000    0.0000    0.9230    0.2153    0.0000    0.0000
       28 FE2    2pz        0.0000   -0.0000    0.0000   -0.0000    0.0006   -0.0001    0.0000   -0.0000    0.0003    0.0005
       29 FE2    3pz        0.0000   -0.0000    0.0000   -0.0000    0.0137   -0.0001   -0.0000    0.0000    0.0120    0.0071
       30 FE2    4pz       -0.0001    0.0000   -0.0000    0.0000   -0.2167   -0.1388   -0.0000    0.0000    0.0112    0.5756
       31 FE2    5pz       -0.0000    0.0000    0.0000   -0.0000    0.1952   -0.0075   -0.0000    0.0000    1.0066    0.0160
       32 FE2    3d2-       0.0000   -0.0000    0.0000   -0.0000   -0.0000    0.0000   -0.0000    0.0000   -0.0000    0.0000
       33 FE2    4d2-      -0.0000    0.0000    0.0000   -0.0000    0.0000   -0.0000   -0.0000    0.0000    0.0000   -0.0000
       34 FE2    3d1-      -0.0644   -0.0179   -0.0030   -0.0006    0.0000   -0.0000    0.0042    0.0010    0.0000   -0.0000
       35 FE2    4d1-       0.7985    0.2214   -0.0593   -0.0129   -0.0000   -0.0000    0.0394    0.0092   -0.0000    0.0002
       36 FE2    3d0        0.0000   -0.0000    0.0000   -0.0000    0.0042    0.0097    0.0000   -0.0000    0.0216    0.0136
       37 FE2    4d0       -0.0001    0.0000    0.0000   -0.0000    0.0704   -0.9423    0.0000   -0.0000    0.0637    0.1917
       38 FE2    3d1+       0.0179   -0.0644    0.0006   -0.0030   -0.0000    0.0000   -0.0010    0.0042   -0.0000    0.0000
       39 FE2    4d1+      -0.2214    0.7985    0.0129   -0.0593    0.0000    0.0000   -0.0092    0.0394    0.0000   -0.0000
       40 FE2    3d2+       0.0000    0.0000    0.0000    0.0000   -0.0000    0.0000   -0.0000   -0.0000   -0.0000    0.0000
       41 FE2    4d2+      -0.0000   -0.0000    0.0000    0.0000    0.0000   -0.0000   -0.0000   -0.0000    0.0000   -0.0000
       42 FE2    4f3-      -0.0000   -0.0000   -0.0000   -0.0000   -0.0000   -0.0000   -0.0000   -0.0000    0.0000   -0.0000
       43 FE2    4f2-      -0.0000    0.0000   -0.0001    0.0001    0.0000    0.0000   -0.0000    0.0000    0.0000   -0.0000
       44 FE2    4f1-       0.0185    0.0051    0.9237    0.2012    0.0000   -0.0000    0.2718    0.0634   -0.0000    0.0000
       45 FE2    4f0        0.0000   -0.0000   -0.0000    0.0000    0.9540    0.0363   -0.0000    0.0000   -0.2055    0.1169
       46 FE2    4f1+      -0.0051    0.0185   -0.2012    0.9237   -0.0000    0.0000   -0.0634    0.2718    0.0000   -0.0000
       47 FE2    4f2+      -0.0000   -0.0000   -0.0001   -0.0000    0.0000    0.0000   -0.0000   -0.0000    0.0000   -0.0000
       48 FE2    4f3+      -0.0000   -0.0000    0.0000   -0.0000   -0.0000   -0.0000    0.0000   -0.0000    0.0000   -0.0000
 
          Orbital           31        32        33        34        35        36        37        38        39        40    
          Energy           -0.0098   -0.2410    0.0119    0.0090    0.0111    0.1482    0.2508    0.2480    0.6701    0.6720
          Occ. No.          0.0000    0.0000    0.0000    0.0000    0.0000    0.0000    0.0000    0.0000    0.0000    0.0000
 
        1 O1     1s         0.0056    0.0124    0.0000    0.0000   -0.0001   -0.0087    0.0000   -0.0000   -0.0000    0.0000
        2 O1     2s         0.0624    0.1091    0.0000    0.0000    0.0036   -0.0774    0.0000   -0.0000   -0.0000    0.0000
        3 O1     3s         0.3565   -0.1587   -0.0000   -0.0001    0.1690    0.2240   -0.0000    0.0000   -0.0000    0.0000
        4 O1     2px        0.0000   -0.0000    0.0067    0.0212    0.0000    0.0000    0.1472   -0.0408    0.0000    0.0000
        5 O1     3px       -0.0000    0.0000    0.0171    0.0645   -0.0000    0.0001    0.9077   -0.2514    0.0000    0.0003
        6 O1     2py       -0.0000   -0.0000   -0.0182    0.0075    0.0000   -0.0000    0.0407    0.1476   -0.0000    0.0000
        7 O1     3py        0.0001   -0.0001   -0.0459    0.0222    0.0000   -0.0001    0.2510    0.9088   -0.0001    0.0001
        8 O1     2pz       -0.0005   -0.0460   -0.0000   -0.0000   -0.0759    0.1834   -0.0000    0.0000    0.0000   -0.0000
        9 O1     3pz       -0.1425    0.0521    0.0000    0.0000   -0.6711    0.8628   -0.0001    0.0001    0.0000   -0.0000
       10 O1     3d2-       0.0000   -0.0000    0.0000   -0.0001   -0.0000   -0.0000    0.0005    0.0001    0.0057   -0.0348
       11 O1     3d1-       0.0000    0.0000    0.0007   -0.0002    0.0001    0.0001    0.0020    0.0071   -0.0000    0.0000
       12 O1     3d0       -0.1067    0.0930    0.0000    0.0001   -0.0654   -0.1126    0.0000   -0.0000   -0.0000   -0.0000
       13 O1     3d1+      -0.0000   -0.0000   -0.0002   -0.0005   -0.0000   -0.0000    0.0067   -0.0020    0.0000    0.0001
       14 O1     3d2+       0.0000   -0.0000    0.0000   -0.0002   -0.0000   -0.0000    0.0009    0.0002    0.0081    0.0243
       15 FE2    1s        -0.0002    0.0001    0.0000    0.0000   -0.0008    0.0010   -0.0000    0.0000    0.0000   -0.0000
       16 FE2    2s        -0.0015    0.0005    0.0000    0.0000   -0.0056    0.0069   -0.0000    0.0000    0.0000   -0.0000
       17 FE2    3s        -0.0154    0.0042    0.0000    0.0000   -0.0275    0.0353   -0.0000    0.0000    0.0000   -0.0000
       18 FE2    4s         0.4581   -0.6848   -0.0002    0.0001   -0.3833    0.1471   -0.0000    0.0000    0.0000   -0.0000
       19 FE2    5s        -0.7371   -0.6449   -0.0002    0.0000   -0.0889   -0.0169   -0.0000   -0.0001    0.0000   -0.0000
       20 FE2    2px       -0.0000    0.0000   -0.0000   -0.0000    0.0000   -0.0000   -0.0003    0.0001   -0.0000   -0.0000
       21 FE2    3px        0.0000   -0.0000    0.0008    0.0020    0.0000    0.0000   -0.0053    0.0015   -0.0000   -0.0000
       22 FE2    4px       -0.0000    0.0001   -0.3100   -0.8623   -0.0003   -0.0003   -0.1793    0.0549    0.0000   -0.0000
       23 FE2    5px       -0.0000    0.0000   -0.0811   -0.2255   -0.0001   -0.0001   -0.0431    0.0133    0.0000    0.0000
       24 FE2    2py        0.0000    0.0000    0.0000   -0.0000   -0.0000    0.0000   -0.0001   -0.0003    0.0000   -0.0000
       25 FE2    3py       -0.0000    0.0000   -0.0021    0.0007    0.0000    0.0000   -0.0015   -0.0053    0.0000   -0.0000
       26 FE2    4py        0.0001   -0.0003    0.8585   -0.3111   -0.0001   -0.0001   -0.0486   -0.1968    0.0000    0.0000
       27 FE2    5py        0.0000   -0.0001    0.2245   -0.0813   -0.0000   -0.0000   -0.0117   -0.0477    0.0000    0.0000
       28 FE2    2pz       -0.0002    0.0001    0.0000    0.0000   -0.0008    0.0010   -0.0000    0.0000    0.0000   -0.0000
       29 FE2    3pz       -0.0070    0.0027    0.0000    0.0000   -0.0207    0.0192   -0.0000    0.0000    0.0000   -0.0000
       30 FE2    4pz       -0.0961   -0.0693    0.0000   -0.0004    0.5066    0.7427   -0.0000    0.0001    0.0000    0.0000
       31 FE2    5pz        0.0361   -0.0107    0.0000   -0.0001    0.1094    0.1305   -0.0000    0.0000   -0.0000    0.0000
       32 FE2    3d2-       0.0000   -0.0000   -0.0000    0.0000   -0.0000    0.0000   -0.0000   -0.0000   -0.0004    0.0017
       33 FE2    4d2-      -0.0000    0.0000    0.0000    0.0001    0.0000    0.0000   -0.0003   -0.0000   -0.2603    0.9649
       34 FE2    3d1-      -0.0000    0.0000   -0.0095    0.0033    0.0000    0.0000   -0.0039   -0.0138    0.0000   -0.0000
       35 FE2    4d1-       0.0003   -0.0001   -0.2841    0.0997    0.0001    0.0001   -0.1308   -0.4661    0.0001   -0.0000
       36 FE2    3d0       -0.0342    0.0206    0.0000    0.0000   -0.0605    0.0265   -0.0000    0.0000    0.0000   -0.0000
[...]
 ###    User changed nr of frozen orbitals.                                  ###
 ###                                                                         ###
 ###                                                                         ###
 ###############################################################################
 ###############################################################################
 
++    Wave function specifications:
      -----------------------------
 
      Number of closed shell electrons          22
      Number of electrons in active shells      10
      Max number of holes in RAS1 space          0
      Max number of electrons in RAS3 space      0
      Number of inactive orbitals               11
      Number of active orbitals                 14
      Number of secondary orbitals              23
      Spin quantum number                      2.0
      State symmetry                             1
      Number of CSFs                        975975
      Number of root(s) available                1
      Root passed to geometry opt.               1
      A file JOBMIX will be created.
      This is a CASSCF or RASSCF reference function
--
 
++    Orbital specifications:
      -----------------------
 
      Symmetry species                           1
                                                 a
      Frozen orbitals                            0
      Inactive orbitals                         11
      Active orbitals                           14
      Secondary orbitals                        23
      Deleted orbitals                           0
      Number of basis functions                 48
--
 
      Type of Fock operator: STANDARD
      Type of 0-order Hamiltonian: STANDARD WITH DEFAULT IPEA
        "IP-EA" denominator shift =      0.25
      The input orbitals and the CI vector will be transformed.
 
--------------------------------------------------------------------------------
 Estimated memory requirements:
  POLY3 :                227658189
  RHS:                     4146972
  SIGMA :                   646704
  PRPCTL:                        0
 Available workspace:    229020647
 
++ CASPT2 computation for group   1
 
********************************************************************************
 Multi-State initialization phase begins for group   1
--------------------------------------------------------------------------------
********************************************************************************
 Compute H0 matrices for state    1
--------------------------------------------------------------------------------
--------------------------------------------------------------------------------
 H0 matrices have been computed.
 
********************************************************************************
  CASPT2 EQUATION SOLUTION
--------------------------------------------------------------------------------
 
  Total nr of CASPT2 parameters:
   Before reduction:      408969
   After  reduction:      408969
 
 The contributions to the second order correlation energy in atomic units.
-----------------------------------------------------------------------------------------------------------------------------
  IT.      VJTU        VJTI        ATVX        AIVX        VJAI        BVAT        BJAT        BJAI        TOTAL       RNORM  
-----------------------------------------------------------------------------------------------------------------------------
   1    -0.002186   -0.029263   -0.015665   -0.177535   -0.017173   -0.077310   -0.018811   -0.044695   -0.382637    0.018534
   2    -0.002197   -0.029282   -0.016241   -0.177949   -0.017235   -0.077453   -0.019025   -0.044795   -0.384178    0.005588
   3    -0.002195   -0.029285   -0.016414   -0.178093   -0.017229   -0.077443   -0.019043   -0.044803   -0.384505    0.001793
   4    -0.002193   -0.029286   -0.016401   -0.178074   -0.017222   -0.077415   -0.019019   -0.044793   -0.384404    0.000644
   5    -0.002193   -0.029286   -0.016389   -0.178058   -0.017222   -0.077418   -0.019018   -0.044792   -0.384376    0.000185
   6    -0.002193   -0.029286   -0.016387   -0.178063   -0.017223   -0.077422   -0.019020   -0.044794   -0.384387    0.000055
   7    -0.002193   -0.029286   -0.016387   -0.178065   -0.017223   -0.077423   -0.019020   -0.044794   -0.384390    0.000018
   8    -0.002193   -0.029286   -0.016387   -0.178064   -0.017223   -0.077422   -0.019020   -0.044794   -0.384389    0.000005
   9    -0.002193   -0.029286   -0.016387   -0.178064   -0.017223   -0.077422   -0.019020   -0.044794   -0.384389    0.000001
-------------------------------------------------------------------------------------------------------------------
 
  FINAL CASPT2 RESULT:
 
  Correlation energy /Case, /Symm, and sums:
 VJTU     -0.00219327 -0.00219327
 VJTIP    -0.00978145 -0.00978145
 VJTIM    -0.01950485 -0.01950485
 ATVX     -0.01638670 -0.01638670
 AIVX     -0.17806399 -0.17806399
 VJAIP    -0.01391143 -0.01391143
 VJAIM    -0.00331111 -0.00331111
 BVATP    -0.02198359 -0.02198359
 BVATM    -0.05543881 -0.05543881
 BJATP    -0.01165009 -0.01165009
 BJATM    -0.00736961 -0.00736961
 BJAIP    -0.03023178 -0.03023178
 BJAIM    -0.01456192 -0.01456192
 Summed:  -0.38438859 -0.38438859
 
      Reference energy:       -1345.4603581885
      E2 (Non-variational):      -0.3843885944
      E2 (Variational):          -0.3843885975
      Total energy:           -1345.8447467860
      Residual norm:              0.0000002773
      Reference weight:           0.93712
 
      Contributions to the CASPT2 correlation energy
      Active & Virtual Only:         -0.0938091034
      One Inactive Excited:          -0.1992769627
      Two Inactive Excited:          -0.0913025283
 
 
++ Denominators, etc.
----------------------------------------------------------------------------------------------------
 Report on small energy denominators, large coefficients, and large energy contributions.
CASE  SYMM ACTIVE-MIX  NON-ACTIVE INDICES          DENOMINATOR     RHS VALUE       COEFFICIENT     CONTRIBUTION
ATVX     1  Mu1.0001  Se1.026                       0.04573277     -0.00000000      0.00000000     -0.00000000
ATVX     1  Mu1.0002  Se1.026                       0.04573278     -0.00000000      0.00000000     -0.00000000
ATVX     1  Mu1.0003  Se1.026                       0.06114501      0.00000000     -0.00000000     -0.00000000
ATVX     1  Mu1.0004  Se1.026                       0.06950148     -0.00000000     -0.00000000      0.00000000
ATVX     1  Mu1.0005  Se1.026                       0.06950150      0.00000000     -0.00000000     -0.00000000
ATVX     1  Mu1.0006  Se1.026                       0.12872303      0.00000000     -0.00000000     -0.00000000
ATVX     1  Mu1.0007  Se1.026                       0.24024826     -0.00000000      0.00000000     -0.00000000
ATVX     1  Mu1.0008  Se1.026                       0.24024827      0.00000000     -0.00000000     -0.00000000
ATVX     1  Mu1.0009  Se1.026                       0.26166126     -0.00001357      0.00005437     -0.00000000
ATVX     1  Mu1.0010  Se1.026                       0.26198441      0.00000000     -0.00000000     -0.00000000
ATVX     1  Mu1.0011  Se1.026                       0.26626839     -0.00000000      0.00000000     -0.00000000
ATVX     1  Mu1.0012  Se1.026                       0.26641974      0.00000000     -0.00000000     -0.00000000
ATVX     1  Mu1.0013  Se1.026                       0.26660348     -0.00001894      0.00007291     -0.00000000
ATVX     1  Mu1.0001  Se1.027                       0.14390014     -0.00000057      0.00001780     -0.00000000
ATVX     1  Mu1.0002  Se1.027                       0.14390015     -0.00001017      0.00031462     -0.00000000
ATVX     1  Mu1.0003  Se1.027                       0.15931238     -0.00000000     -0.00000000      0.00000000
ATVX     1  Mu1.0004  Se1.027                       0.16766885     -0.00001682      0.00000755     -0.00000000
ATVX     1  Mu1.0005  Se1.027                       0.16766887      0.00028102     -0.00012598     -0.00000004
ATVX     1  Mu1.0006  Se1.027                       0.22689040      0.00000000     -0.00000000     -0.00000000
ATVX     1  Mu1.0001  Se1.028                       0.14390014     -0.00001017      0.00031462     -0.00000000
ATVX     1  Mu1.0002  Se1.028                       0.14390015      0.00000057     -0.00001780     -0.00000000
ATVX     1  Mu1.0003  Se1.028                       0.15931238      0.00000000      0.00000000      0.00000000
ATVX     1  Mu1.0004  Se1.028                       0.16766885     -0.00028102      0.00012598     -0.00000004
ATVX     1  Mu1.0005  Se1.028                       0.16766887     -0.00001682      0.00000755     -0.00000000
ATVX     1  Mu1.0006  Se1.028                       0.22689040     -0.00000000      0.00000000     -0.00000000
ATVX     1  Mu1.0001  Se1.029                       0.29127843      0.00000000     -0.00000000     -0.00000000
ATVX     1  Mu1.0002  Se1.029                       0.29127843     -0.00000000      0.00000000     -0.00000000
ATVX     1  Mu1.0207  Se1.031                       1.97821629     -0.08649269      0.04396170     -0.00380237
ATVX     1  Mu1.0230  Se1.031                       2.07181464      0.05735292     -0.02727845     -0.00156450
ATVX     1  Mu1.0206  Se1.032                       1.97821629     -0.08649269      0.04396170     -0.00380237
ATVX     1  Mu1.0229  Se1.032                       2.07181464     -0.05735292      0.02727845     -0.00156450
AIVX     1  Mu1.0086  In1.011 Se1.033               3.14639123     -0.10697625      0.03354615     -0.00358864
AIVX     1  Mu1.0087  In1.011 Se1.033               3.15652234     -0.09418891      0.03126127     -0.00294446
AIVX     1  Mu1.0169  In1.009 Se1.034               6.57246496     -0.17795030      0.02707334     -0.00481771
AIVX     1  Mu1.0169  In1.010 Se1.035               6.57246496     -0.17795031      0.02707334     -0.00481771
AIVX     1  Mu1.0027  In1.011 Se1.037               3.54449790      0.15763007     -0.04350366     -0.00685748
AIVX     1  Mu1.0059  In1.011 Se1.038               3.79444156     -0.15761783      0.04067440     -0.00641101
AIVX     1  Mu1.0031  In1.011 Se1.041               3.62027805     -0.10331027      0.02793292     -0.00288576
BVATM    1  Mu1.0001  Se1.032 Se1.031               2.03747053      0.06938058     -0.03426779     -0.00237752
BVATM    1  Mu1.0001  Se1.038 Se1.037               5.01784227     -0.12996139      0.02590020     -0.00336603
BJATP    1  Mu1.0002  In1.011 Se1.033 Se1.031       3.15048373     -0.08122894      0.02543664     -0.00206619
BJATP    1  Mu1.0001  In1.011 Se1.033 Se1.032       3.15048373      0.08122894     -0.02543664     -0.00206619
BJAIP    1  Se1.033 In1.011 Se1.033 In1.011         4.26344629      0.10404136     -0.02570910     -0.00267481
--
 
   (Skipping property calculation,
    use PROP keyword to activate)
--
 
  Total CASPT2 energies:
::    CASPT2 Root  1     Total energy:  -1345.84474679
 
  A NEW JOBIPH FILE NAMED 'JOBMIX' IS PREPARED.
********************************************************************************
forrtl: warning (528): IEEE_UNDERFLOW is signaling
--- Stop Module: caspt2 at Wed Jan 22 11:10:07 2025 /rc=_RC_ALL_IS_WELL_ ---
*** files: xmldump
    saved to directory /home/grierjones/DDCASPT2/iron_oxo_DDCASPT2/cluster/3.43
--- Module caspt2 spent 14 minutes 59 seconds ---

>>> EXPORT i = B

>>> EXPORT j = P

>>> IF (-FILE GMJ_e2_${i}_${j}.csv)

>>> COPY /tmp/3.43/GMJ_RHS_B_P.csv /home/grierjones/DDCASPT2/iron_oxo_DDCASPT2/cluster/3.43/GMJ_RHS_B_P.csv

>>> COPY /tmp/3.43/GMJ_IVECW_B_P.csv /home/grierjones/DDCASPT2/iron_oxo_DDCASPT2/cluster/3.43/GMJ_IVECW_B_P.csv

>>> COPY /tmp/3.43/GMJ_IVECX_B_P.csv /home/grierjones/DDCASPT2/iron_oxo_DDCASPT2/cluster/3.43/GMJ_IVECX_B_P.csv

>>> COPY /tmp/3.43/GMJ_IVECC2_B_P.csv /home/grierjones/DDCASPT2/iron_oxo_DDCASPT2/cluster/3.43/GMJ_IVECC2_B_P.csv

>>> COPY /tmp/3.43/GMJ_e2_B_P.csv /home/grierjones/DDCASPT2/iron_oxo_DDCASPT2/cluster/3.43/GMJ_e2_B_P.csv

>>> END FOREACH

>>> EXPORT j = M

>>> IF (-FILE GMJ_e2_${i}_${j}.csv)

>>> COPY /tmp/3.43/GMJ_RHS_B_M.csv /home/grierjones/DDCASPT2/iron_oxo_DDCASPT2/cluster/3.43/GMJ_RHS_B_M.csv

>>> COPY /tmp/3.43/GMJ_IVECW_B_M.csv /home/grierjones/DDCASPT2/iron_oxo_DDCASPT2/cluster/3.43/GMJ_IVECW_B_M.csv

>>> COPY /tmp/3.43/GMJ_IVECX_B_M.csv /home/grierjones/DDCASPT2/iron_oxo_DDCASPT2/cluster/3.43/GMJ_IVECX_B_M.csv

>>> COPY /tmp/3.43/GMJ_IVECC2_B_M.csv /home/grierjones/DDCASPT2/iron_oxo_DDCASPT2/cluster/3.43/GMJ_IVECC2_B_M.csv

>>> COPY /tmp/3.43/GMJ_e2_B_M.csv /home/grierjones/DDCASPT2/iron_oxo_DDCASPT2/cluster/3.43/GMJ_e2_B_M.csv

>>> END FOREACH

>>> END FOREACH

>>> EXPORT i = E

>>> EXPORT j = P

>>> IF (-FILE GMJ_e2_${i}_${j}.csv)

>>> COPY /tmp/3.43/GMJ_RHS_E_P.csv /home/grierjones/DDCASPT2/iron_oxo_DDCASPT2/cluster/3.43/GMJ_RHS_E_P.csv

>>> COPY /tmp/3.43/GMJ_IVECW_E_P.csv /home/grierjones/DDCASPT2/iron_oxo_DDCASPT2/cluster/3.43/GMJ_IVECW_E_P.csv

>>> COPY /tmp/3.43/GMJ_IVECX_E_P.csv /home/grierjones/DDCASPT2/iron_oxo_DDCASPT2/cluster/3.43/GMJ_IVECX_E_P.csv

>>> COPY /tmp/3.43/GMJ_IVECC2_E_P.csv /home/grierjones/DDCASPT2/iron_oxo_DDCASPT2/cluster/3.43/GMJ_IVECC2_E_P.csv

>>> COPY /tmp/3.43/GMJ_e2_E_P.csv /home/grierjones/DDCASPT2/iron_oxo_DDCASPT2/cluster/3.43/GMJ_e2_E_P.csv

>>> END FOREACH

>>> EXPORT j = M

>>> IF (-FILE GMJ_e2_${i}_${j}.csv)

>>> COPY /tmp/3.43/GMJ_RHS_E_M.csv /home/grierjones/DDCASPT2/iron_oxo_DDCASPT2/cluster/3.43/GMJ_RHS_E_M.csv

>>> COPY /tmp/3.43/GMJ_IVECW_E_M.csv /home/grierjones/DDCASPT2/iron_oxo_DDCASPT2/cluster/3.43/GMJ_IVECW_E_M.csv

>>> COPY /tmp/3.43/GMJ_IVECX_E_M.csv /home/grierjones/DDCASPT2/iron_oxo_DDCASPT2/cluster/3.43/GMJ_IVECX_E_M.csv

>>> COPY /tmp/3.43/GMJ_IVECC2_E_M.csv /home/grierjones/DDCASPT2/iron_oxo_DDCASPT2/cluster/3.43/GMJ_IVECC2_E_M.csv

>>> COPY /tmp/3.43/GMJ_e2_E_M.csv /home/grierjones/DDCASPT2/iron_oxo_DDCASPT2/cluster/3.43/GMJ_e2_E_M.csv

>>> END FOREACH

>>> END FOREACH

>>> EXPORT i = F

>>> EXPORT j = P

>>> IF (-FILE GMJ_e2_${i}_${j}.csv)

>>> COPY /tmp/3.43/GMJ_RHS_F_P.csv /home/grierjones/DDCASPT2/iron_oxo_DDCASPT2/cluster/3.43/GMJ_RHS_F_P.csv

>>> COPY /tmp/3.43/GMJ_IVECW_F_P.csv /home/grierjones/DDCASPT2/iron_oxo_DDCASPT2/cluster/3.43/GMJ_IVECW_F_P.csv

>>> COPY /tmp/3.43/GMJ_IVECX_F_P.csv /home/grierjones/DDCASPT2/iron_oxo_DDCASPT2/cluster/3.43/GMJ_IVECX_F_P.csv

>>> COPY /tmp/3.43/GMJ_IVECC2_F_P.csv /home/grierjones/DDCASPT2/iron_oxo_DDCASPT2/cluster/3.43/GMJ_IVECC2_F_P.csv

>>> COPY /tmp/3.43/GMJ_e2_F_P.csv /home/grierjones/DDCASPT2/iron_oxo_DDCASPT2/cluster/3.43/GMJ_e2_F_P.csv

>>> END FOREACH

>>> EXPORT j = M

>>> IF (-FILE GMJ_e2_${i}_${j}.csv)

>>> COPY /tmp/3.43/GMJ_RHS_F_M.csv /home/grierjones/DDCASPT2/iron_oxo_DDCASPT2/cluster/3.43/GMJ_RHS_F_M.csv

>>> COPY /tmp/3.43/GMJ_IVECW_F_M.csv /home/grierjones/DDCASPT2/iron_oxo_DDCASPT2/cluster/3.43/GMJ_IVECW_F_M.csv

>>> COPY /tmp/3.43/GMJ_IVECX_F_M.csv /home/grierjones/DDCASPT2/iron_oxo_DDCASPT2/cluster/3.43/GMJ_IVECX_F_M.csv

>>> COPY /tmp/3.43/GMJ_IVECC2_F_M.csv /home/grierjones/DDCASPT2/iron_oxo_DDCASPT2/cluster/3.43/GMJ_IVECC2_F_M.csv

>>> COPY /tmp/3.43/GMJ_e2_F_M.csv /home/grierjones/DDCASPT2/iron_oxo_DDCASPT2/cluster/3.43/GMJ_e2_F_M.csv

>>> END FOREACH

>>> END FOREACH

>>> EXPORT i = G

>>> EXPORT j = P

>>> IF (-FILE GMJ_e2_${i}_${j}.csv)

>>> COPY /tmp/3.43/GMJ_RHS_G_P.csv /home/grierjones/DDCASPT2/iron_oxo_DDCASPT2/cluster/3.43/GMJ_RHS_G_P.csv

>>> COPY /tmp/3.43/GMJ_IVECW_G_P.csv /home/grierjones/DDCASPT2/iron_oxo_DDCASPT2/cluster/3.43/GMJ_IVECW_G_P.csv

>>> COPY /tmp/3.43/GMJ_IVECX_G_P.csv /home/grierjones/DDCASPT2/iron_oxo_DDCASPT2/cluster/3.43/GMJ_IVECX_G_P.csv

>>> COPY /tmp/3.43/GMJ_IVECC2_G_P.csv /home/grierjones/DDCASPT2/iron_oxo_DDCASPT2/cluster/3.43/GMJ_IVECC2_G_P.csv

>>> COPY /tmp/3.43/GMJ_e2_G_P.csv /home/grierjones/DDCASPT2/iron_oxo_DDCASPT2/cluster/3.43/GMJ_e2_G_P.csv

>>> END FOREACH

>>> EXPORT j = M

>>> IF (-FILE GMJ_e2_${i}_${j}.csv)

>>> COPY /tmp/3.43/GMJ_RHS_G_M.csv /home/grierjones/DDCASPT2/iron_oxo_DDCASPT2/cluster/3.43/GMJ_RHS_G_M.csv

>>> COPY /tmp/3.43/GMJ_IVECW_G_M.csv /home/grierjones/DDCASPT2/iron_oxo_DDCASPT2/cluster/3.43/GMJ_IVECW_G_M.csv

>>> COPY /tmp/3.43/GMJ_IVECX_G_M.csv /home/grierjones/DDCASPT2/iron_oxo_DDCASPT2/cluster/3.43/GMJ_IVECX_G_M.csv

>>> COPY /tmp/3.43/GMJ_IVECC2_G_M.csv /home/grierjones/DDCASPT2/iron_oxo_DDCASPT2/cluster/3.43/GMJ_IVECC2_G_M.csv

>>> COPY /tmp/3.43/GMJ_e2_G_M.csv /home/grierjones/DDCASPT2/iron_oxo_DDCASPT2/cluster/3.43/GMJ_e2_G_M.csv

>>> END FOREACH

>>> END FOREACH

>>> EXPORT i = H

>>> EXPORT j = P

>>> IF (-FILE GMJ_e2_${i}_${j}.csv)

>>> COPY /tmp/3.43/GMJ_RHS_H_P.csv /home/grierjones/DDCASPT2/iron_oxo_DDCASPT2/cluster/3.43/GMJ_RHS_H_P.csv

>>> COPY /tmp/3.43/GMJ_IVECW_H_P.csv /home/grierjones/DDCASPT2/iron_oxo_DDCASPT2/cluster/3.43/GMJ_IVECW_H_P.csv

>>> COPY /tmp/3.43/GMJ_IVECX_H_P.csv /home/grierjones/DDCASPT2/iron_oxo_DDCASPT2/cluster/3.43/GMJ_IVECX_H_P.csv

>>> COPY /tmp/3.43/GMJ_IVECC2_H_P.csv /home/grierjones/DDCASPT2/iron_oxo_DDCASPT2/cluster/3.43/GMJ_IVECC2_H_P.csv

>>> COPY /tmp/3.43/GMJ_e2_H_P.csv /home/grierjones/DDCASPT2/iron_oxo_DDCASPT2/cluster/3.43/GMJ_e2_H_P.csv

>>> END FOREACH

>>> EXPORT j = M

>>> IF (-FILE GMJ_e2_${i}_${j}.csv)

>>> COPY /tmp/3.43/GMJ_RHS_H_M.csv /home/grierjones/DDCASPT2/iron_oxo_DDCASPT2/cluster/3.43/GMJ_RHS_H_M.csv

>>> COPY /tmp/3.43/GMJ_IVECW_H_M.csv /home/grierjones/DDCASPT2/iron_oxo_DDCASPT2/cluster/3.43/GMJ_IVECW_H_M.csv

>>> COPY /tmp/3.43/GMJ_IVECX_H_M.csv /home/grierjones/DDCASPT2/iron_oxo_DDCASPT2/cluster/3.43/GMJ_IVECX_H_M.csv

>>> COPY /tmp/3.43/GMJ_IVECC2_H_M.csv /home/grierjones/DDCASPT2/iron_oxo_DDCASPT2/cluster/3.43/GMJ_IVECC2_H_M.csv

>>> COPY /tmp/3.43/GMJ_e2_H_M.csv /home/grierjones/DDCASPT2/iron_oxo_DDCASPT2/cluster/3.43/GMJ_e2_H_M.csv

>>> END FOREACH

>>> END FOREACH

>>> EXPORT i = A

>>> IF (-FILE GMJ_e2_$i.csv)

>>> COPY /tmp/3.43/GMJ_RHS_A.csv /home/grierjones/DDCASPT2/iron_oxo_DDCASPT2/cluster/3.43/GMJ_RHS_A.csv

>>> COPY /tmp/3.43/GMJ_IVECW_A.csv /home/grierjones/DDCASPT2/iron_oxo_DDCASPT2/cluster/3.43/GMJ_IVECW_A.csv

>>> COPY /tmp/3.43/GMJ_IVECX_A.csv /home/grierjones/DDCASPT2/iron_oxo_DDCASPT2/cluster/3.43/GMJ_IVECX_A.csv

>>> COPY /tmp/3.43/GMJ_IVECC2_A.csv /home/grierjones/DDCASPT2/iron_oxo_DDCASPT2/cluster/3.43/GMJ_IVECC2_A.csv

>>> COPY /tmp/3.43/GMJ_e2_A.csv /home/grierjones/DDCASPT2/iron_oxo_DDCASPT2/cluster/3.43/GMJ_e2_A.csv

>>> END FOREACH

>>> EXPORT i = C

>>> IF (-FILE GMJ_e2_$i.csv)

>>> COPY /tmp/3.43/GMJ_RHS_C.csv /home/grierjones/DDCASPT2/iron_oxo_DDCASPT2/cluster/3.43/GMJ_RHS_C.csv

>>> COPY /tmp/3.43/GMJ_IVECW_C.csv /home/grierjones/DDCASPT2/iron_oxo_DDCASPT2/cluster/3.43/GMJ_IVECW_C.csv

>>> COPY /tmp/3.43/GMJ_IVECX_C.csv /home/grierjones/DDCASPT2/iron_oxo_DDCASPT2/cluster/3.43/GMJ_IVECX_C.csv

>>> COPY /tmp/3.43/GMJ_IVECC2_C.csv /home/grierjones/DDCASPT2/iron_oxo_DDCASPT2/cluster/3.43/GMJ_IVECC2_C.csv

>>> COPY /tmp/3.43/GMJ_e2_C.csv /home/grierjones/DDCASPT2/iron_oxo_DDCASPT2/cluster/3.43/GMJ_e2_C.csv

>>> END FOREACH

>>> EXPORT i = D

>>> IF (-FILE GMJ_e2_$i.csv)

>>> COPY /tmp/3.43/GMJ_RHS_D.csv /home/grierjones/DDCASPT2/iron_oxo_DDCASPT2/cluster/3.43/GMJ_RHS_D.csv

>>> COPY /tmp/3.43/GMJ_IVECW_D.csv /home/grierjones/DDCASPT2/iron_oxo_DDCASPT2/cluster/3.43/GMJ_IVECW_D.csv

>>> COPY /tmp/3.43/GMJ_IVECX_D.csv /home/grierjones/DDCASPT2/iron_oxo_DDCASPT2/cluster/3.43/GMJ_IVECX_D.csv

>>> COPY /tmp/3.43/GMJ_IVECC2_D.csv /home/grierjones/DDCASPT2/iron_oxo_DDCASPT2/cluster/3.43/GMJ_IVECC2_D.csv

>>> COPY /tmp/3.43/GMJ_e2_D.csv /home/grierjones/DDCASPT2/iron_oxo_DDCASPT2/cluster/3.43/GMJ_e2_D.csv

>>> END FOREACH

.########################.
.# Non-zero return code #.
.########################.

    Timing: Wall=1169.09 User=1164.54 System=4.46
************************************
*** WorkDir at /tmp/3.43 cleaned ***
************************************
