[Molden Format]
[N_Atoms]
                     2
[Atoms] (AU)
BE1         1      4           0.00000000      0.00000000      0.00000000
F2          2      9           0.00000000      0.00000000      3.02356180
[Charge] (Mulliken)
  0.582417440661594     
 -0.582417440661610     
[GTO] (AU)
   1
   s  14
  2.262859900E+04  8.443999941E-05
  3.372318100E+03  4.601499968E-04
  7.603504000E+02  2.285389984E-03
  2.117404800E+02  9.648129932E-03
  6.722346800E+01  3.494469975E-02
  2.337217700E+01  1.061099893E-01
  8.721373000E+00  2.458240383E-01
  3.468091000E+00  3.862428773E-01
  1.452144000E+00  3.105526078E-01
  6.086150000E-01  6.415933955E-02
  2.576860000E-01 -2.265049984E-03
  1.041760000E-01 -5.217499963E-04
  4.242700000E-02 -8.757499938E-04
  1.484900000E-02  1.242199991E-04
   s  14
  2.262859900E+04 -1.586999994E-05
  3.372318100E+03 -8.656999968E-05
  7.603504000E+02 -4.302199984E-04
  2.117404800E+02 -1.825079993E-03
  6.722346800E+01 -6.682749976E-03
  2.337217700E+01 -2.095119992E-02
  8.721373000E+00 -5.200308981E-02
  3.468091000E+00 -9.849176964E-02
  1.452144000E+00 -1.355800695E-01
  6.086150000E-01 -6.429875976E-02
  2.576860000E-01  3.125414989E-01
  1.041760000E-01  6.270468577E-01
  4.242700000E-02  2.110231492E-01
  1.484900000E-02 -4.104669985E-03
   p   9
  3.371018400E+01  1.069960000E-03
  8.057649500E+00  6.828550001E-03
  2.836471400E+00  2.119065000E-02
  1.099965700E+00  5.843696001E-02
  4.433964000E-01  2.020920800E-01
  1.822264000E-01  4.582953101E-01
  7.572410000E-02  3.691239601E-01
  3.168540000E-02  6.611471001E-02
  1.108990000E-02  1.405160000E-03
 
   2
   s  14
  1.031094600E+05  1.713099991E-04
  1.528100700E+04  7.123999962E-04
  3.441539200E+03  2.990479984E-03
  9.670948300E+02  1.164036994E-02
  3.140353400E+02  3.968642979E-02
  1.134423000E+02  1.128546094E-01
  4.464472700E+01  2.473650687E-01
  1.894287400E+01  3.672702681E-01
  8.532743000E+00  2.896286985E-01
  3.919401000E+00  7.786681959E-02
  1.568157000E+00  4.562139976E-03
  6.232900000E-01  2.468879987E-03
  2.408610000E-01  1.106309994E-03
  8.430100000E-02  1.739699991E-04
   s  14
  1.031094600E+05 -4.044999995E-05
  1.528100700E+04 -1.682299998E-04
  3.441539200E+03 -7.084299991E-04
  9.670948300E+02 -2.767999996E-03
  3.140353400E+02 -9.611379987E-03
  1.134423000E+02 -2.833957996E-02
  4.464472700E+01 -6.839343991E-02
  1.894287400E+01 -1.237379298E-01
  8.532743000E+00 -1.512859698E-01
  3.919401000E+00 -9.099909988E-03
  1.568157000E+00  3.716257695E-01
  6.232900000E-01  5.500214393E-01
  2.408610000E-01  2.092318697E-01
  8.430100000E-02  8.074639989E-03
   p   9
  2.453302900E+02  1.024860004E-03
  5.691900500E+01  8.344290032E-03
  1.760456800E+01  4.078927016E-02
  6.274995000E+00  1.351370605E-01
  2.447030000E+00  2.798830811E-01
  9.950600000E-01  3.597966414E-01
  4.039730000E-01  3.055347412E-01
  1.548100000E-01  1.354703905E-01
  5.418400000E-02  2.804449011E-02
 
[MO]
Sym=     1a  
Ene=   -26.0860
Spin= Alpha
Occup=    1.00000
   1        -0.00003437
   2        -0.00074454
   3        -0.00000000
   4         0.00000000
   5        -0.00073732
   6         1.00005490
   7        -0.00224136
   8        -0.00000000
   9         0.00000000
  10         0.00059644
Sym=     1a  
Ene=   -26.0860
Spin= Beta
Occup=    1.00000
   1        -0.00003437
   2        -0.00074454
   3        -0.00000000
   4         0.00000000
   5        -0.00073732
   6         1.00005490
   7        -0.00224136
   8        -0.00000000
   9         0.00000000
  10         0.00059644
Sym=     2a  
Ene=    -4.8051
Spin= Alpha
Occup=    1.00000
   1         1.00037349
   2         0.00054300
   3        -0.00000000
   4         0.00000000
   5        -0.00135087
   6         0.00002271
   7         0.00150155
   8        -0.00000000
   9         0.00000000
  10         0.00717729
Sym=     2a  
Ene=    -4.8051
Spin= Beta
Occup=    1.00000
   1         1.00037349
   2         0.00054300
   3        -0.00000000
   4         0.00000000
   5        -0.00135087
   6         0.00002271
   7         0.00150155
   8        -0.00000000
   9         0.00000000
  10         0.00717729
Sym=     3a  
Ene=    -1.4273
Spin= Alpha
Occup=    1.00000
   1        -0.01504999
   2         0.01188214
   3        -0.00000000
   4         0.00000000
   5         0.02519441
   6         0.00104396
   7         0.98156311
   8        -0.00000001
   9         0.00000001
  10         0.10264660
Sym=     3a  
Ene=    -1.4273
Spin= Beta
Occup=    1.00000
   1        -0.01504999
   2         0.01188214
   3        -0.00000000
   4         0.00000000
   5         0.02519441
   6         0.00104396
   7         0.98156311
   8        -0.00000001
   9         0.00000001
  10         0.10264660
Sym=     4a  
Ene=    -0.5423
Spin= Alpha
Occup=    1.00000
   1        -0.00000000
   2         0.00000001
   3        -0.12425856
   4         0.02009279
   5         0.00000001
   6        -0.00000000
   7        -0.00000002
   8        -0.95378453
   9         0.15422836
  10        -0.00000007
Sym=     4a  
Ene=    -0.5423
Spin= Beta
Occup=    1.00000
   1        -0.00000000
   2         0.00000001
   3        -0.12425856
   4         0.02009279
   5         0.00000001
   6        -0.00000000
   7        -0.00000002
   8        -0.95378453
   9         0.15422836
  10        -0.00000007
Sym=     5a  
Ene=    -0.5423
Spin= Alpha
Occup=    1.00000
   1        -0.00000000
   2         0.00000001
   3         0.02009279
   4         0.12425856
   5         0.00000001
   6        -0.00000000
   7        -0.00000001
   8         0.15422836
   9         0.95378453
  10        -0.00000004
Sym=     5a  
Ene=    -0.5423
Spin= Beta
Occup=    1.00000
   1        -0.00000000
   2         0.00000001
   3         0.02009279
   4         0.12425856
   5         0.00000001
   6        -0.00000000
   7        -0.00000001
   8         0.15422836
   9         0.95378453
  10        -0.00000004
Sym=     6a  
Ene=    -0.6112
Spin= Alpha
Occup=    1.00000
   1         0.04697900
   2        -0.18194444
   3        -0.00000001
   4         0.00000001
   5        -0.16619309
   6         0.01252957
   7         0.02853535
   8        -0.00000006
   9         0.00000005
  10         0.90878541
Sym=     6a  
Ene=    -0.6112
Spin= Beta
Occup=    1.00000
   1         0.04697900
   2        -0.18194444
   3        -0.00000001
   4         0.00000001
   5        -0.16619309
   6         0.01252957
   7         0.02853535
   8        -0.00000006
   9         0.00000005
  10         0.90878541
Sym=     7a  
Ene=     0.0016
Spin= Alpha
Occup=    1.00000
   1        -0.00912128
   2        -0.86749013
   3        -0.00000000
   4         0.00000000
   5         0.50499613
   6        -0.00002911
   7         0.03846873
   8         0.00000000
   9        -0.00000000
  10        -0.16645388
Sym=     7a  
Ene=     0.0016
Spin= Beta
Occup=    0.00000
   1        -0.00912128
   2        -0.86749013
   3        -0.00000000
   4         0.00000000
   5         0.50499613
   6        -0.00002911
   7         0.03846873
   8         0.00000000
   9        -0.00000000
  10        -0.16645388
Sym=     8a  
Ene=     0.1103
Spin= Alpha
Occup=    0.00000
   1        -0.00000000
   2        -0.00000000
   3         0.90161756
   4         0.46540181
   5         0.00000000
   6         0.00000000
   7         0.00000000
   8        -0.29720413
   9        -0.15341243
  10        -0.00000000
Sym=     8a  
Ene=     0.1103
Spin= Beta
Occup=    0.00000
   1        -0.00000000
   2        -0.00000000
   3         0.90161756
   4         0.46540181
   5         0.00000000
   6         0.00000000
   7         0.00000000
   8        -0.29720413
   9        -0.15341243
  10        -0.00000000
Sym=     9a  
Ene=     0.1103
Spin= Alpha
Occup=    0.00000
   1        -0.00000000
   2        -0.00000000
   3         0.46540181
   4        -0.90161756
   5         0.00000000
   6         0.00000000
   7         0.00000000
   8        -0.15341243
   9         0.29720413
  10        -0.00000000
Sym=     9a  
Ene=     0.1103
Spin= Beta
Occup=    0.00000
   1        -0.00000000
   2        -0.00000000
   3         0.46540181
   4        -0.90161756
   5         0.00000000
   6         0.00000000
   7         0.00000000
   8        -0.15341243
   9         0.29720413
  10        -0.00000000
Sym=    10a  
Ene=     0.3280
Spin= Alpha
Occup=    0.00000
   1        -0.04187918
   2        -0.63083707
   3        -0.00000000
   4         0.00000000
   5        -1.00447190
   6         0.06908994
   7         0.62990170
   8        -0.00000000
   9         0.00000000
  10        -0.49922860
Sym=    10a  
Ene=     0.3280
Spin= Beta
Occup=    0.00000
   1        -0.04187918
   2        -0.63083707
   3        -0.00000000
   4         0.00000000
   5        -1.00447190
   6         0.06908994
   7         0.62990170
   8        -0.00000000
   9         0.00000000
  10        -0.49922860
