[Molden Format]
[N_Atoms]
                     2
[Atoms] (AU)
BE1         1      4           0.00000000      0.00000000      0.00000000
F2          2      9           0.00000000      0.00000000      3.02356180
[Charge] (Mulliken)
  0.580699123583327     
 -0.580699123583347     
[GTO] (AU)
   1
   s  14
  2.262859900E+04  8.443999941E-05
  3.372318100E+03  4.601499968E-04
  7.603504000E+02  2.285389984E-03
  2.117404800E+02  9.648129932E-03
  6.722346800E+01  3.494469975E-02
  2.337217700E+01  1.061099893E-01
  8.721373000E+00  2.458240383E-01
  3.468091000E+00  3.862428773E-01
  1.452144000E+00  3.105526078E-01
  6.086150000E-01  6.415933955E-02
  2.576860000E-01 -2.265049984E-03
  1.041760000E-01 -5.217499963E-04
  4.242700000E-02 -8.757499938E-04
  1.484900000E-02  1.242199991E-04
   s  14
  2.262859900E+04 -1.586999994E-05
  3.372318100E+03 -8.656999968E-05
  7.603504000E+02 -4.302199984E-04
  2.117404800E+02 -1.825079993E-03
  6.722346800E+01 -6.682749976E-03
  2.337217700E+01 -2.095119992E-02
  8.721373000E+00 -5.200308981E-02
  3.468091000E+00 -9.849176964E-02
  1.452144000E+00 -1.355800695E-01
  6.086150000E-01 -6.429875976E-02
  2.576860000E-01  3.125414989E-01
  1.041760000E-01  6.270468577E-01
  4.242700000E-02  2.110231492E-01
  1.484900000E-02 -4.104669985E-03
   p   9
  3.371018400E+01  1.069960000E-03
  8.057649500E+00  6.828550001E-03
  2.836471400E+00  2.119065000E-02
  1.099965700E+00  5.843696001E-02
  4.433964000E-01  2.020920800E-01
  1.822264000E-01  4.582953101E-01
  7.572410000E-02  3.691239601E-01
  3.168540000E-02  6.611471001E-02
  1.108990000E-02  1.405160000E-03
 
   2
   s  14
  1.031094600E+05  1.713099991E-04
  1.528100700E+04  7.123999962E-04
  3.441539200E+03  2.990479984E-03
  9.670948300E+02  1.164036994E-02
  3.140353400E+02  3.968642979E-02
  1.134423000E+02  1.128546094E-01
  4.464472700E+01  2.473650687E-01
  1.894287400E+01  3.672702681E-01
  8.532743000E+00  2.896286985E-01
  3.919401000E+00  7.786681959E-02
  1.568157000E+00  4.562139976E-03
  6.232900000E-01  2.468879987E-03
  2.408610000E-01  1.106309994E-03
  8.430100000E-02  1.739699991E-04
   s  14
  1.031094600E+05 -4.044999995E-05
  1.528100700E+04 -1.682299998E-04
  3.441539200E+03 -7.084299991E-04
  9.670948300E+02 -2.767999996E-03
  3.140353400E+02 -9.611379987E-03
  1.134423000E+02 -2.833957996E-02
  4.464472700E+01 -6.839343991E-02
  1.894287400E+01 -1.237379298E-01
  8.532743000E+00 -1.512859698E-01
  3.919401000E+00 -9.099909988E-03
  1.568157000E+00  3.716257695E-01
  6.232900000E-01  5.500214393E-01
  2.408610000E-01  2.092318697E-01
  8.430100000E-02  8.074639989E-03
   p   9
  2.453302900E+02  1.024860004E-03
  5.691900500E+01  8.344290032E-03
  1.760456800E+01  4.078927016E-02
  6.274995000E+00  1.351370605E-01
  2.447030000E+00  2.798830811E-01
  9.950600000E-01  3.597966414E-01
  4.039730000E-01  3.055347412E-01
  1.548100000E-01  1.354703905E-01
  5.418400000E-02  2.804449011E-02
 
[MO]
Sym=     1a  
Ene=   -26.0880
Spin= Alpha
Occup=    1.00000
   1        -0.00010383
   2        -0.00047337
   3        -0.00000000
   4        -0.00000000
   5        -0.00046982
   6         1.00003412
   7        -0.00227622
   8         0.00000000
   9        -0.00000000
  10        -0.00082535
Sym=     1a  
Ene=   -26.0880
Spin= Beta
Occup=    1.00000
   1        -0.00010552
   2        -0.00045958
   3        -0.00000000
   4        -0.00000000
   5        -0.00047444
   6         1.00003394
   7        -0.00228263
   8         0.00000000
   9         0.00000000
  10        -0.00081561
Sym=     2a  
Ene=    -4.8159
Spin= Alpha
Occup=    1.00000
   1         0.99983695
   2         0.00240405
   3         0.00000000
   4        -0.00000000
   5        -0.00031706
   6        -0.00009070
   7         0.00195202
   8         0.00000000
   9         0.00000000
  10        -0.00192643
Sym=     2a  
Ene=    -4.7947
Spin= Beta
Occup=    1.00000
   1         0.99986203
   2         0.00263215
   3         0.00000000
   4        -0.00000000
   5         0.00077417
   6        -0.00015004
   7         0.00140749
   8         0.00000000
   9         0.00000000
  10        -0.00168576
Sym=     3a  
Ene=    -1.4600
Spin= Alpha
Occup=    1.00000
   1        -0.02617570
   2         0.04487749
   3        -0.00000000
   4         0.00000000
   5         0.05617255
   6        -0.00161590
   7         0.95860637
   8        -0.00000000
   9        -0.00000000
  10        -0.07371684
Sym=     3a  
Ene=    -1.4583
Spin= Beta
Occup=    1.00000
   1        -0.02571405
   2         0.04536547
   3        -0.00000000
   4         0.00000000
   5         0.05587580
   6        -0.00160372
   7         0.95927798
   8        -0.00000000
   9        -0.00000000
  10        -0.06582540
Sym=     4a  
Ene=    -0.5908
Spin= Alpha
Occup=    1.00000
   1         0.05265163
   2        -0.22004499
   3         0.00000000
   4         0.00000000
   5        -0.12018146
   6         0.01338749
   7         0.21191801
   8        -0.00000000
   9         0.00000000
  10         0.90506201
Sym=     4a  
Ene=    -0.5725
Spin= Beta
Occup=    1.00000
   1         0.05286013
   2        -0.18286807
   3         0.00000000
   4         0.00000000
   5        -0.16576233
   6         0.01457239
   7         0.21334812
   8         0.00000000
   9         0.00000000
  10         0.90804112
Sym=     5a  
Ene=    -0.5395
Spin= Alpha
Occup=    1.00000
   1        -0.00000000
   2         0.00000000
   3         0.14079421
   4        -0.02270583
   5        -0.00000000
   6         0.00000000
   7         0.00000000
   8         0.94826573
   9        -0.15292645
  10         0.00000000
Sym=     5a  
Ene=    -0.5466
Spin= Beta
Occup=    1.00000
   1        -0.00000000
   2         0.00000000
   3         0.10888545
   4        -0.02051432
   5         0.00000000
   6        -0.00000000
   7         0.00000000
   8         0.95424263
   9        -0.17978199
  10        -0.00000000
Sym=     6a  
Ene=    -0.5395
Spin= Alpha
Occup=    1.00000
   1        -0.00000000
   2         0.00000000
   3         0.02270583
   4         0.14079421
   5        -0.00000000
   6         0.00000000
   7        -0.00000000
   8         0.15292645
   9         0.94826573
  10        -0.00000000
Sym=     6a  
Ene=    -0.5466
Spin= Beta
Occup=    1.00000
   1        -0.00000000
   2         0.00000000
   3         0.02051432
   4         0.10888545
   5         0.00000000
   6        -0.00000000
   7        -0.00000000
   8         0.17978199
   9         0.95424263
  10        -0.00000000
Sym=     7a  
Ene=    -0.3642
Spin= Alpha
Occup=    1.00000
   1         0.01183724
   2         0.85768675
   3         0.00000000
   4         0.00000000
   5        -0.51052014
   6         0.00066358
   7        -0.02661168
   8        -0.00000000
   9        -0.00000000
  10         0.21958309
Sym=     7a  
Ene=     0.0374
Spin= Beta
Occup=    0.00000
   1         0.01431888
   2         0.93830497
   3         0.00000000
   4         0.00000000
   5        -0.37749555
   6        -0.00846699
   7        -0.11541733
   8        -0.00000000
   9        -0.00000000
  10         0.22907807
Sym=     8a  
Ene=     0.0813
Spin= Alpha
Occup=    0.00000
   1        -0.00000000
   2        -0.00000000
   3         0.90383431
   4         0.45618194
   5        -0.00000000
   6         0.00000000
   7         0.00000000
   8        -0.31279225
   9        -0.15787205
  10        -0.00000000
Sym=     8a  
Ene=     0.1396
Spin= Beta
Occup=    0.00000
   1        -0.00000000
   2        -0.00000000
   3         0.93360225
   4         0.40182950
   5        -0.00000000
   6         0.00000000
   7         0.00000000
   8        -0.29401161
   9        -0.12654483
  10        -0.00000000
Sym=     9a  
Ene=     0.0813
Spin= Alpha
Occup=    0.00000
   1        -0.00000000
   2         0.00000000
   3         0.45618194
   4        -0.90383431
   5        -0.00000000
   6         0.00000000
   7         0.00000000
   8        -0.15787205
   9         0.31279225
  10        -0.00000000
Sym=     9a  
Ene=     0.1396
Spin= Beta
Occup=    0.00000
   1         0.00000000
   2        -0.00000000
   3        -0.40182950
   4         0.93360225
   5         0.00000000
   6        -0.00000000
   7        -0.00000000
   8         0.12654483
   9        -0.29401161
  10         0.00000000
Sym=    10a  
Ene=     0.3113
Spin= Alpha
Occup=    0.00000
   1         0.04178859
   2         0.63061398
   3         0.00000000
   4        -0.00000000
   5         1.00698167
   6        -0.06921549
   7        -0.63086536
   8        -0.00000000
   9         0.00000000
  10         0.49053305
Sym=    10a  
Ene=     0.3489
Spin= Beta
Occup=    0.00000
   1         0.04041270
   2         0.51751158
   3         0.00000000
   4        -0.00000000
   5         1.05789375
   6        -0.06846012
   7        -0.61926058
   8        -0.00000000
   9         0.00000000
  10         0.48172947
