   This run of MOLCAS is using the pymolcas driver

                             OPE
                             OPE          NMOL  CASOP  ENMOLC A   SO
                 OPE        NMOLC        AS  OP EN  MO LC     AS  OP
                OPENM       OL CA        SO  PE NM  OL CA     SOP EN
                OP EN      MO   LC       AS  OP ENMOL  CASO   PENMOL
                OP  EN     MO   LC       AS  OP EN     MO     LC ASO
               OP   E  NMOL  C  AS       OP  EN MO     LC     AS  OP
               OP  E   NMO   LC AS        OPEN  MO     LCASOP EN   M
               O  PEN   MO  LCA  SO
            OPE   NMO   L   CAS    OP
        OPENMOL  CASOP     ENMOL   CASOPE
     OPENMOLCA   SOPENMOLCASOPEN   MOLCASOPE
    OPENMOLCAS   OP           EN   MOL    CAS
    OPENMOLCAS       OP  ENM        O     LCA
    OPENMOLCAS    OPEN  MOLCASO     P  E  NMO
    OPENMOLCAS     OP               E  N  MOL
    OPENMOLCA   SO           PENM   O  L  CAS    OPEN    MO    LCAS
    OPENMOLCA   SOP           ENM   O  L  CAS   OP  EN  MOLC  AS   O
    OPENMOLCA   SOPE           NM      O  LCA   S      OP  EN MO
    OPENMOLC                AS         O  PEN   M      OL  CA  SOPE
    OPENMO        LCASOPE  NMOL        C  ASO   P      ENMOLC     AS
    OPE     NMO      LCA  SO     P     E   NM   OL  CA SO  PE N   MO
          OPENMOLCA            SOPE   NMO        LCAS  O    P  ENMO
     OPENMOLCASOPENMOLCASOPENMOLCASOPENMOLCA
        OPENMOLCASOPENMOLCASOPENMOLCASOPE
            OPENMOLCASOPENMOLCASOPENM
               OPENMOLCASOPENMOLCA        version: 1d1d16313-dirty
                   OPENMOLCASO
                       OPE                tag:

 OpenMolcas is free software; you can redistribute it and/or modify it
 under the terms of the GNU Lesser General Public License version 2.1.
 OpenMolcas is distributed in the hope that it will be useful, but it
 is provided "as is" and without any express or implied warranties.
 For more details see the full text of the license in the file
 LICENSE or in <http://www.gnu.org/licenses/>.

                 Copyright (C) The OpenMolcas Authors
           For the author list and the recommended citation,
                   consult the file CONTRIBUTORS.md

           *************************************************
           * pymolcas version py2.28                       *
           *   build c4a6d18ded8cb6cad61d2372a9abd97c      *
           *   (after the EMIL interpreter by V. Veryazov) *
           *************************************************

configuration info
------------------
C Compiler ID: IntelLLVM
C flags: -std=gnu99
Fortran Compiler ID: IntelLLVM
Fortran flags: -standard-semantics -fltconsistency -fpp -i8 -heap-arrays
Definitions: _MOLCAS_;_I8_;_LINUX_
Parallel: OFF (GA=OFF)


   --------------------------------------------------------------------------------
  |
  |              Project: ozone_148.75
  |       Submitted from: /home/grierjones/DDCASPT2/ozone/ANO-RCC-VDZP/ozone_148.75
  |         Scratch area: /tmp/ozone_148.75
  |      Save outputs to: /home/grierjones/DDCASPT2/ozone/ANO-RCC-VDZP/ozone_148.75
  |               Molcas: /home/grierjones/Test/build
  |
  | Scratch area is empty
  |
  |       MOLCAS_DRIVER = /usr/local/pymolcas
  | MOLCAS_KEEP_WORKDIR = NO
  |  MOLCAS_NEW_WORKDIR = YES
  |       MOLCAS_NPROCS = 1
  |        MOLCAS_PRINT = NORMAL
  |       MOLCAS_SOURCE = /home/grierjones/Test
  |    MOLCAS_STRUCTURE = 0
  |
   --------------------------------------------------------------------------------

++ ---------   Input file   ---------

&GATEWAY
coord=ozone_148.75.xyz
Basis = ANO-RCC-VDZP
Group = nosymm
Expert
End of Input

&SEWARD
End of Input

&SCF

>>> COPY $WorkDir/ozone_148.75.scf.h5 $CurrDir/

&RASSCF
Title= RASSCF
FileOrb
/home/grierjones/DDCASPT2/ozone/ANO-RCC-VDZP/ozone_148.50/ozone_148.50.RasOrb
NACTEL
4 0 0
Inactive
10
RAS2
3
Symmetry
1
Spin
1
orblisting
all
ITERation
300 200

>>> COPY $WorkDir/ozone_148.75.rasscf.h5 $CurrDir/

>>> COPY $WorkDir/GMJ_Fock_MO.csv $CurrDir/ozone_148.75.GMJ_Fock_MO.csv

>>> COPY $WorkDir/GMJ_PT2_Fock_MO.csv $CurrDir/ozone_148.75.GMJ_PT2_Fock_MO.csv

&MOTRA
Frozen=0
LUMORB

>>> COPY $WorkDir/GMJ_one_int_indx.csv $CurrDir/ozone_148.75.GMJ_one_int_indx.csv

>>> COPY $WorkDir/GMJ_one_int.csv $CurrDir/ozone_148.75.GMJ_one_int.csv

>>> COPY $WorkDir/GMJ_two_int_indx.csv $CurrDir/ozone_148.75.GMJ_two_int_indx.csv

>>> COPY $WorkDir/GMJ_two_int.csv $CurrDir/ozone_148.75.GMJ_two_int.csv

&CASPT2
Frozen
0
MAXITER
50

>>> FOREACH i IN (B,E,F,G,H)

  >>> FOREACH j IN (P,M)

    >>> IF (-FILE GMJ_e2_${i}_${j}.csv)

      >>> COPY $WorkDir/GMJ_RHS_${i}_${j}.csv $CurrDir/GMJ_RHS_${i}_${j}.csv

      >>> COPY $WorkDir/GMJ_IVECW_${i}_${j}.csv $CurrDir/GMJ_IVECW_${i}_${j}.csv

      >>> COPY $WorkDir/GMJ_IVECX_${i}_${j}.csv $CurrDir/GMJ_IVECX_${i}_${j}.csv

      >>> COPY $WorkDir/GMJ_IVECC2_${i}_${j}.csv $CurrDir/GMJ_IVECC2_${i}_${j}.csv

      >>> COPY $WorkDir/GMJ_e2_${i}_${j}.csv $CurrDir/GMJ_e2_${i}_${j}.csv

    >>> END IF

  >>> END FOREACH

>>> END FOREACH

>>> FOREACH i IN (A,C,D)

  >>> IF (-FILE GMJ_e2_$i.csv)

    >>> COPY $WorkDir/GMJ_RHS_$i.csv $CurrDir/GMJ_RHS_$i.csv

    >>> COPY $WorkDir/GMJ_IVECW_$i.csv $CurrDir/GMJ_IVECW_$i.csv

    >>> COPY $WorkDir/GMJ_IVECX_$i.csv $CurrDir/GMJ_IVECX_$i.csv

    >>> COPY $WorkDir/GMJ_IVECC2_$i.csv $CurrDir/GMJ_IVECC2_$i.csv

    >>> COPY $WorkDir/GMJ_e2_$i.csv $CurrDir/GMJ_e2_$i.csv

  >>> END IF

>>> END FOREACH

-- ----------------------------------

--- Start Module: gateway at Fri Jan 24 16:53:02 2025 ---
 
()()()()()()()()()()()()()()()()()()()()()()()()()()()()()()()()()()()()()()()()()()()()()()()()()()

                                              &GATEWAY

                                   only a single process is used
                       available to each process: 2.0 GB of memory, 1 thread?
()()()()()()()()()()()()()()()()()()()()()()()()()()()()()()()()()()()()()()()()()()()()()()()()()()
 
 ###############################################################################
 ###############################################################################
 ###                                                                         ###
 ###                                                                         ###
 ###                                                                         ###
 ###    WARNING: EXPERT option is ON!                                        ###
 ###                                                                         ###
 ###                                                                         ###
 ###############################################################################
 ###############################################################################
 
++    Symmetry information:
      ---------------------
 
                    Character Table for C1 
 
                             E  
                    a        1  x, y, xy, Rz, z, xz, Ry, yz, Rx, I
--
 
 
++    Basis set information:
      ----------------------
 
 
      Basis set label: O.ANO-RCC...3S2P1D.
 
      Electronic valence basis set:
      ------------------
      Associated Effective Charge   8.000000 au
      Associated Actual Charge      8.000000 au
      Nuclear Model: Point charge
 
      Shell  nPrim  nBasis  Cartesian Spherical Contaminant
         s      14       3        X                  
         p       9       2        X                  
         d       4       1                 X         
--
 
 
++    Molecular structure info:
      -------------------------
 
                    ************************************************ 
                    **** Cartesian Coordinates / Bohr, Angstrom **** 
                    ************************************************ 
 
     Center  Label                x              y              z                     x              y              z
        1      O1               0.650476       2.325822       0.000000              0.344217       1.230772       0.000000
        2      O2               0.000000       0.000000       0.000000              0.000000       0.000000       0.000000
        3      O3               0.650476      -2.325822       0.000000              0.344217      -1.230772       0.000000
 
                    *************************************** 
                    *    InterNuclear Distances / Bohr    * 
                    *************************************** 
 
               1 O1            2 O2            3 O3    
    1 O1       0.000000
    2 O2       2.415071        0.000000
    3 O3       4.651644        2.415071        0.000000
 
                    ******************************************* 
                    *    InterNuclear Distances / Angstrom    * 
                    ******************************************* 
 
               1 O1            2 O2            3 O3    
    1 O1       0.000000
    2 O2       1.278000        0.000000
    3 O3       2.461544        1.278000        0.000000
 
                    ************************************** 
                    *    Valence Bond Angles / Degree    * 
                    ************************************** 
                          Atom centers                 Phi
                      1 O1       2 O2       3 O3       148.75
--
 
 
            Nuclear Potential Energy             66.75909374 au
 
 ###############################################################################
 ###############################################################################
 ###                                                                         ###
 ###                                                                         ###
 ###    There were warnings during the execution                             ###
 ###    Please, check the output with care!                                  ###
 ###                                                                         ###
 ###                                                                         ###
 ###############################################################################
 ###############################################################################
--- Stop Module: gateway at Fri Jan 24 16:53:03 2025 /rc=_RC_ALL_IS_WELL_ ---
*** files: xmldump
    saved to directory /home/grierjones/DDCASPT2/ozone/ANO-RCC-VDZP/ozone_148.75

--- Start Module: seward at Fri Jan 24 16:53:03 2025 ---
 
()()()()()()()()()()()()()()()()()()()()()()()()()()()()()()()()()()()()()()()()()()()()()()()()()()

                                              &SEWARD

                                   only a single process is used
                       available to each process: 2.0 GB of memory, 1 thread?
()()()()()()()()()()()()()()()()()()()()()()()()()()()()()()()()()()()()()()()()()()()()()()()()()()
 
 ###############################################################################
 ###############################################################################
 ###                                                                         ###
 ###                                                                         ###
 ###                                                                         ###
 ###    WARNING: EXPERT option is ON!                                        ###
 ###                                                                         ###
 ###                                                                         ###
 ###############################################################################
 ###############################################################################
               SEWARD will generate:
                  Multipole Moment integrals up to order  2
                  Kinetic Energy integrals
                  Nuclear Attraction integrals (point charge)
                  One-Electron Hamiltonian integrals
                  Velocity integrals
                  Relativistic Douglas-Kroll-Hess integrals:
                    - Parametrization         : EXP
                    - DKH order of Hamiltonian: 2
                    - DKH order of Properties : 0
                         - multipole moment operators
                         - electric potential operators
                         - contact operators
                  Atomic mean-field integrals
                  Two-Electron Repulsion integrals
 
                   Integrals are discarded if absolute value <: 0.10E-13
                   Integral cutoff threshold is set to       <: 0.10E-15
 
            Nuclear Potential Energy             66.75909374 au
 
 
      Basis set specifications :
      Symmetry species         a  
      Basis functions           42
 
 
  Input file to MOLDEN was generated!
 
 ###############################################################################
 ###############################################################################
 ###                                                                         ###
 ###                                                                         ###
 ###    There were warnings during the execution                             ###
 ###    Please, check the output with care!                                  ###
 ###                                                                         ###
 ###                                                                         ###
 ###############################################################################
 ###############################################################################
forrtl: warning (525): IEEE_DIVIDE_BY_ZERO is signaling
forrtl: warning (526): IEEE_INVALID is signaling
forrtl: warning (528): IEEE_UNDERFLOW is signaling
--- Stop Module: seward at Fri Jan 24 16:53:04 2025 /rc=_RC_ALL_IS_WELL_ ---
*** files: ozone_148.75.GssOrb ozone_148.75.guessorb.h5 ozone_148.75.guessorb.molden xmldump
    saved to directory /home/grierjones/DDCASPT2/ozone/ANO-RCC-VDZP/ozone_148.75
--- Module seward spent 1 second ---

*** symbolic link created: INPORB -> ozone_148.75.GssOrb
--- Start Module: scf at Fri Jan 24 16:53:04 2025 ---
 
()()()()()()()()()()()()()()()()()()()()()()()()()()()()()()()()()()()()()()()()()()()()()()()()()()

                                                &SCF

                                   only a single process is used
                       available to each process: 2.0 GB of memory, 1 thread?
()()()()()()()()()()()()()()()()()()()()()()()()()()()()()()()()()()()()()()()()()()()()()()()()()()
 
++    Input section:
      --------------
 
      Header of the integral files:
      
       Integrals generated by seward 4.2.0  , Fri Jan 24 16:53:03 2025
 
 
      Cartesian coordinates in Angstrom:
      -----------------------------------------------------
      No.  Label        X            Y            Z        
      -----------------------------------------------------
       1   O1         0.34421700   1.23077200   0.00000000
       2   O2         0.00000000   0.00000000   0.00000000
       3   O3         0.34421700  -1.23077200   0.00000000
      -----------------------------------------------------
      Nuclear repulsion energy =   66.75909374
--
 
++    Orbital specifications:
      -----------------------
 
      Symmetry species               1
                                     a
      Frozen orbitals                0
      Occupied orbitals             12
      Secondary orbitals            30
      Deleted orbitals               0
      Total number of orbitals      42
      Number of basis functions     42
--
 
      Molecular charge                           0.000
 
++    Optimization specifications:
      ----------------------------
 
      SCF Algorithm: Conventional
      Minimized density differences are used
      Number of density matrices in core                5
      Maximum number of NDDO SCF iterations           400
      Maximum number of HF SCF iterations             400
      Threshold for SCF energy change            0.10E-08
      Threshold for density matrix               0.10E-03
      Threshold for Fock matrix                  0.15E-03
      Threshold for linear dependence            0.10E-08
      Threshold at which DIIS is turned on       0.15E+00
      Threshold at which QNR/C2DIIS is turned on 0.75E-01
      Threshold for Norm(delta) (QNR/C2DIIS)     0.20E-04
      DIIS extrapolation of the SCF procedure
      All orbitals punched on: SCFORB
--
 
      Input vectors read from INPORB
      Orbital file label: *Guess orbitals
 
 
++ Convergence information
                                   SCF        iterations: Energy and convergence statistics
 
Iter     Tot. SCF        One-elec.       Two-elec.     Energy      Max Dij or  Max Fij      DNorm      TNorm      AccCon     Time
         Energy          Energy          Energy        Change      Delta Norm                                                in Sec.
   1  -223.918037000  -437.271539160   146.594408420   0.00E+00    0.58E+00*   0.26E+00*    0.73E+01   0.75E+02   None         0.
   2  -224.133733986  -443.242219550   152.349391825  -0.22E+00*   0.27E+00*   0.17E+00*    0.23E+01   0.77E+02   EDIIS        0.
   3  -224.396457759  -440.706574946   149.551023448  -0.26E+00*   0.21E+00*   0.93E-01*    0.78E+00   0.76E+02   EDIIS        0.
   4  -224.403590966  -441.517378318   150.354693614  -0.71E-02*   0.30E-01*   0.48E-01*    0.22E+00   0.76E+02   EDIIS        0.
   5  -224.438685364  -441.078263047   149.880483944  -0.35E-01*   0.13E-01*   0.61E-02*    0.45E-01   0.76E+02   c2DIIS       0.
   6  -224.439050558  -441.114334413   149.916190116  -0.37E-03*   0.54E-02*   0.31E-02*    0.10E-01   0.76E+02   QNRc2DIIS    0.
   7  -224.439136637  -441.119240385   149.921010009  -0.86E-04*   0.12E-01*   0.25E-02*    0.37E-02   0.76E+02   QNRc2DIIS    0.
   8  -224.439200838  -441.111741558   149.913446981  -0.64E-04*   0.15E-02*   0.79E-03*    0.18E-02   0.76E+02   QNRc2DIIS    0.
   9  -224.439206736  -441.117796601   149.919496126  -0.59E-05*   0.87E-03*   0.23E-03*    0.12E-02   0.76E+02   QNRc2DIIS    0.
  10  -224.439207718  -441.116066657   149.917765201  -0.98E-06*   0.21E-03*   0.58E-04     0.92E-03   0.76E+02   QNRc2DIIS    0.
  11  -224.439207769  -441.117682408   149.919380900  -0.51E-07*   0.91E-04*   0.29E-04     0.22E-03   0.76E+02   QNRc2DIIS    0.
  12  -224.439207780  -441.117097053   149.918795534  -0.11E-07*   0.32E-04*   0.81E-05     0.49E-04   0.76E+02   QNRc2DIIS    0.
  13  -224.439207781  -441.117071239   149.918769719  -0.11E-08*   0.60E-05    0.19E-05     0.37E-04   0.76E+02   QNRc2DIIS    0.
  14  -224.439207782  -441.117087673   149.918786152  -0.62E-10    0.96E-06    0.47E-06     0.19E-03   0.76E+02   QNRc2DIIS    0.
 
       Convergence after 14 Macro Iterations
--
 
 *****************************************************************************************************************************
 *                                                                                                                           *
 *                                             SCF/KS-DFT Program, Final results                                             *
 *                                                                                                                           *
 *                                                                                                                           *
 *                                                                                                                           *
 *                                                       Final Results                                                       *
 *                                                                                                                           *
 *****************************************************************************************************************************
 
::    Total SCF energy                               -224.4392077815
      One-electron energy                            -441.1170876727
      Two-electron energy                             149.9187861521
      Nuclear repulsion energy                         66.7590937390
      Kinetic energy (interpolated)                   225.4826558472
      Virial theorem                                    0.9953723799
      Total spin, S(S+1)                                0.0000000000
      Total spin, S                                     0.0000000000
      Max non-diagonal density matrix element           0.0000012348
      Max non-diagonal Fock matrix element              0.0000001904
 
 
      All orbitals with orbital energies smaller than  E(LUMO)+0.5 are printed
 
++    Molecular orbitals:
      -------------------
 
      Title: SCF orbitals

      Molecular orbitals for symmetry species 1: a  
 
          Orbital            1         2         3         4         5         6         7         8         9        10    
          Energy          -20.8830  -20.7326  -20.7325   -1.7264   -1.4676   -1.0752   -0.8358   -0.8030   -0.7667   -0.6027
          Occ. No.          2.0000    2.0000    2.0000    2.0000    2.0000    2.0000    2.0000    2.0000    2.0000    2.0000
 
        1 O1     1s         0.0022   -0.7072    0.7072   -0.0152    0.0102    0.0125   -0.0070   -0.0188   -0.0000    0.0058
        2 O1     2s        -0.0000   -0.0007    0.0005    0.3230   -0.5712    0.6361   -0.1502   -0.4059   -0.0000    0.0708
        3 O1     3s        -0.0001   -0.0001   -0.0001   -0.0230    0.0131    0.0164   -0.0129   -0.0263   -0.0000    0.0070
        4 O1     2px        0.0001    0.0003   -0.0002   -0.0248    0.0387    0.0712    0.2875   -0.2406   -0.0000   -0.6478
        5 O1     3px        0.0003    0.0001    0.0001    0.0085   -0.0051   -0.0117   -0.0265    0.0142    0.0000   -0.0041
        6 O1     2py       -0.0000    0.0008   -0.0010   -0.1053    0.0893    0.1520   -0.2076   -0.3673   -0.0000    0.2839
        7 O1     3py        0.0001   -0.0005    0.0003    0.0247   -0.0181   -0.0228    0.0191    0.0293    0.0000    0.0008
        8 O1     2pz       -0.0000    0.0000    0.0000    0.0000    0.0000   -0.0000    0.0000   -0.0000    0.3974   -0.0000
        9 O1     3pz        0.0000   -0.0000   -0.0000    0.0000   -0.0000   -0.0000   -0.0000    0.0000   -0.0242    0.0000
       10 O1     3d2-      -0.0000   -0.0000    0.0000    0.0068   -0.0093   -0.0078   -0.0139    0.0193    0.0000    0.0102
       11 O1     3d1-      -0.0000    0.0000   -0.0000   -0.0000   -0.0000    0.0000   -0.0000    0.0000   -0.0297    0.0000
       12 O1     3d0        0.0001    0.0001   -0.0001   -0.0090    0.0087    0.0057   -0.0063   -0.0161   -0.0000    0.0049
       13 O1     3d1+       0.0000    0.0000    0.0000    0.0000    0.0000   -0.0000   -0.0000   -0.0000   -0.0078    0.0000
       14 O1     3d2+       0.0000   -0.0002    0.0001   -0.0170    0.0122    0.0107   -0.0204   -0.0236    0.0000    0.0147
       15 O2     1s         1.0000    0.0000   -0.0033   -0.0213    0.0000   -0.0155   -0.0044    0.0000    0.0000   -0.0000
       16 O2     2s         0.0003    0.0000   -0.0008    0.6664   -0.0000   -0.6325   -0.0530    0.0000    0.0000   -0.0000
       17 O2     3s        -0.0005    0.0000   -0.0006   -0.0410    0.0000   -0.0102   -0.0062   -0.0000    0.0000    0.0000
       18 O2     2px        0.0006    0.0000   -0.0001    0.0729   -0.0000    0.1431    0.7258    0.0000   -0.0000    0.0000
       19 O2     3px       -0.0009    0.0000   -0.0003   -0.0175    0.0000   -0.0166   -0.0593   -0.0000    0.0000   -0.0000
       20 O2     2py        0.0000    0.0009    0.0000   -0.0000   -0.3303    0.0000   -0.0000    0.5204    0.0000   -0.1275
       21 O2     3py        0.0000    0.0011    0.0000    0.0000    0.0798   -0.0000   -0.0000   -0.0827    0.0000    0.0041
       22 O2     2pz       -0.0000    0.0000    0.0000    0.0000    0.0000    0.0000    0.0000   -0.0000    0.6716   -0.0000
       23 O2     3pz       -0.0000    0.0000    0.0000    0.0000    0.0000    0.0000    0.0000    0.0000   -0.0216    0.0000
       24 O2     3d2-       0.0000    0.0001    0.0000   -0.0000   -0.0272    0.0000   -0.0000    0.0181    0.0000   -0.0413
       25 O2     3d1-      -0.0000   -0.0000   -0.0000   -0.0000   -0.0000    0.0000    0.0000   -0.0000    0.0000   -0.0000
       26 O2     3d0       -0.0003   -0.0000    0.0003   -0.0179    0.0000   -0.0027   -0.0125   -0.0000   -0.0000   -0.0000
       27 O2     3d1+      -0.0000    0.0000    0.0000    0.0000   -0.0000   -0.0000    0.0000   -0.0000    0.0226   -0.0000
       28 O2     3d2+      -0.0000   -0.0000    0.0003   -0.0253    0.0000   -0.0022    0.0149   -0.0000   -0.0000   -0.0000
       29 O3     1s         0.0022    0.7072    0.7072   -0.0152   -0.0102    0.0125   -0.0070    0.0188    0.0000   -0.0058
       30 O3     2s        -0.0000    0.0007    0.0005    0.3230    0.5712    0.6361   -0.1502    0.4059    0.0000   -0.0708
       31 O3     3s        -0.0001    0.0001   -0.0001   -0.0230   -0.0131    0.0164   -0.0129    0.0263    0.0000   -0.0070
       32 O3     2px        0.0001   -0.0003   -0.0002   -0.0248   -0.0387    0.0712    0.2875    0.2406    0.0000    0.6478
       33 O3     3px        0.0003   -0.0001    0.0001    0.0085    0.0051   -0.0117   -0.0265   -0.0142   -0.0000    0.0041
       34 O3     2py        0.0000    0.0008    0.0010    0.1053    0.0893   -0.1520    0.2076   -0.3673   -0.0000    0.2839
       35 O3     3py       -0.0001   -0.0005   -0.0003   -0.0247   -0.0181    0.0228   -0.0191    0.0293   -0.0000    0.0008
       36 O3     2pz       -0.0000   -0.0000   -0.0000    0.0000    0.0000   -0.0000    0.0000   -0.0000    0.3974    0.0000
       37 O3     3pz        0.0000   -0.0000   -0.0000   -0.0000   -0.0000   -0.0000   -0.0000    0.0000   -0.0242   -0.0000
       38 O3     3d2-       0.0000   -0.0000   -0.0000   -0.0068   -0.0093    0.0078    0.0139    0.0193    0.0000    0.0102
       39 O3     3d1-       0.0000   -0.0000   -0.0000    0.0000   -0.0000   -0.0000    0.0000   -0.0000    0.0297   -0.0000
       40 O3     3d0        0.0001   -0.0001   -0.0001   -0.0090   -0.0087    0.0057   -0.0063    0.0161    0.0000   -0.0049
       41 O3     3d1+       0.0000   -0.0000    0.0000   -0.0000    0.0000   -0.0000   -0.0000    0.0000   -0.0078    0.0000
       42 O3     3d2+       0.0000    0.0002    0.0001   -0.0170   -0.0122    0.0107   -0.0204    0.0236    0.0000   -0.0147
 
          Orbital           11        12        13        14        15        16    
          Energy           -0.5087   -0.5055   -0.0404    0.1810    0.2865    0.4529
          Occ. No.          2.0000    2.0000    0.0000    0.0000    0.0000    0.0000
 
        1 O1     1s         0.0000    0.0034   -0.0000    0.0345   -0.1554   -0.0327
        2 O1     2s         0.0000    0.0133   -0.0000    0.3866   -1.1415   -0.2140
        3 O1     3s        -0.0000    0.0173   -0.0000    0.0408   -0.3972   -0.1355
        4 O1     2px       -0.0000    0.6695   -0.0000   -0.0222    0.2654   -0.0550
        5 O1     3px       -0.0000    0.0282    0.0000   -0.0078    0.2003    0.4145
        6 O1     2py       -0.0000    0.0433    0.0000   -0.8157    0.5707    0.1116
        7 O1     3py        0.0000   -0.0201    0.0000   -0.2328    0.6058    0.2835
        8 O1     2pz       -0.7052   -0.0000    0.6586   -0.0000   -0.0000   -0.0000
        9 O1     3pz       -0.0397   -0.0000    0.1292   -0.0000    0.0000   -0.0000
       10 O1     3d2-       0.0000   -0.0048   -0.0000    0.0081   -0.0159    0.0170
       11 O1     3d1-       0.0244    0.0000    0.0112   -0.0000    0.0000    0.0000
       12 O1     3d0       -0.0000    0.0039    0.0000    0.0012    0.0172    0.0115
       13 O1     3d1+       0.0058    0.0000    0.0038   -0.0000   -0.0000   -0.0000
       14 O1     3d2+      -0.0000    0.0071   -0.0000    0.0101    0.0255    0.0373
       15 O2     1s        -0.0000    0.0190   -0.0000   -0.1297   -0.0000    0.0922
       16 O2     2s        -0.0000    0.2411   -0.0000   -1.1626   -0.0000    0.5543
       17 O2     3s        -0.0000    0.0348    0.0000   -0.2698    0.0000    0.2318
       18 O2     2px        0.0000   -0.6185    0.0000   -0.4923    0.0000   -0.0323
       19 O2     3px        0.0000   -0.0291    0.0000   -0.1283    0.0000    0.5258
       20 O2     2py       -0.0000    0.0000    0.0000   -0.0000    1.3128   -0.0000
       21 O2     3py       -0.0000    0.0000    0.0000    0.0000    1.0406    0.0000
       22 O2     2pz        0.0000   -0.0000   -0.8709   -0.0000    0.0000    0.0000
       23 O2     3pz        0.0000    0.0000   -0.1500    0.0000   -0.0000    0.0000
       24 O2     3d2-      -0.0000   -0.0000    0.0000    0.0000    0.0369    0.0000
       25 O2     3d1-      -0.0546   -0.0000   -0.0000   -0.0000    0.0000    0.0000
       26 O2     3d0       -0.0000    0.0184   -0.0000   -0.0322    0.0000   -0.0479
       27 O2     3d1+       0.0000   -0.0000   -0.0028   -0.0000    0.0000   -0.0000
       28 O2     3d2+      -0.0000    0.0300   -0.0000   -0.0537    0.0000   -0.1047
       29 O3     1s        -0.0000    0.0034    0.0000    0.0345    0.1554   -0.0327
       30 O3     2s        -0.0000    0.0133    0.0000    0.3866    1.1415   -0.2140
       31 O3     3s        -0.0000    0.0173    0.0000    0.0408    0.3972   -0.1355
       32 O3     2px       -0.0000    0.6695   -0.0000   -0.0222   -0.2654   -0.0550
       33 O3     3px       -0.0000    0.0282   -0.0000   -0.0078   -0.2003    0.4145
       34 O3     2py        0.0000   -0.0433    0.0000    0.8157    0.5707   -0.1116
       35 O3     3py       -0.0000    0.0201    0.0000    0.2328    0.6058   -0.2835
       36 O3     2pz        0.7052    0.0000    0.6586   -0.0000   -0.0000   -0.0000
       37 O3     3pz        0.0397    0.0000    0.1292    0.0000    0.0000    0.0000
       38 O3     3d2-      -0.0000    0.0048    0.0000   -0.0081   -0.0159   -0.0170
       39 O3     3d1-       0.0244    0.0000   -0.0112   -0.0000    0.0000   -0.0000
       40 O3     3d0       -0.0000    0.0039    0.0000    0.0012   -0.0172    0.0115
       41 O3     3d1+      -0.0058   -0.0000    0.0038    0.0000    0.0000    0.0000
       42 O3     3d2+      -0.0000    0.0071    0.0000    0.0101   -0.0255    0.0373
--
 
 
++    Molecular charges:
      ------------------
 
      Mulliken charges per centre and basis function type
      ---------------------------------------------------
 
                O1      O2      O3    
      1s       2.0003  2.0001  2.0003
      2s       1.9302  1.7273  1.9302
      2px      1.9561  1.7764  1.9561
      2pz      1.4116  1.1303  1.4116
      2py      0.8398  0.9993  0.8398
      3s      -0.0104 -0.0200 -0.0104
      3px     -0.0179 -0.0334 -0.0179
      3pz     -0.0117 -0.0078 -0.0117
      3py     -0.0069  0.0247 -0.0069
      3d2+     0.0192  0.0300  0.0192
      3d1+     0.0009  0.0037  0.0009
      3d0      0.0056  0.0073  0.0056
      3d1-     0.0130  0.0462  0.0130
      3d2-     0.0100  0.0364  0.0100
      Total    8.1397  7.7205  8.1397
 
      N-E     -0.1397  0.2795 -0.1397
 
      Total electronic charge=   24.000000
 
      Total            charge=   -0.000000
--
 
 
  Input file to MOLDEN was generated!
 
 
++    Static properties:
      ------------------
 
 
      LoProp Charges per center
 

                   O1       O2       O3    
      Nuclear      8.0000   8.0000   8.0000
      Electronic  -8.1843  -7.6314  -8.1843
 
      Total       -0.1843   0.3686  -0.1843
--
 
 
++    Natural Bond Order analysis
      ---------------------------
      Based on LoProp computed density
      -------------------------------------------------------------------------------------
      Atom A       Atom B       Bond Order | Atom A       Atom B       Bond Order
        O1           O2             2.000  |   O2           O3             2.000
      -------------------------------------------------------------------------------------
      NBO located     12.000 core electrons.
      NBO located      3.971 lone pair electrons.
      NBO located      8.000 electrons involved in    2 bonds.
      The remaining    0.029 electrons are to be considered as diffuse
--
 
 
++    Molecular properties:
      ---------------------
 
      Charge (e):
                      =   -0.0000
      Dipole Moment (Debye):
      Origin of the operator (Ang)=    0.0000    0.0000    0.0000
                   X= -2.0144E-01               Y= -1.6643E-10               Z= -3.4987E-14           Total=  2.0144E-01
      Quadrupole Moment (Debye*Ang):
      Origin of the operator (Ang)=    0.2295    0.0000    0.0000
                  XX= -1.6461E+01              XY= -2.9278E-11              XZ= -6.4011E-14              YY= -1.7277E+01
                  YZ= -1.3714E-13              ZZ= -1.5180E+01
      In traceless form (Debye*Ang)
                  XX= -2.3224E-01              XY= -4.3917E-11              XZ= -9.6017E-14              YY= -1.4566E+00
                  YZ= -2.0572E-13              ZZ=  1.6889E+00
--
 
 
  Input file to MOLDEN was generated!
 
 ###############################################################################
 ###############################################################################
 ###                                                                         ###
 ###                                                                         ###
 ###    RunFile label nBas                                                   ###
 ###    was used       78 times                                              ###
 ###                                                                         ###
 ###                                                                         ###
 ###############################################################################
 ###############################################################################
forrtl: warning (528): IEEE_UNDERFLOW is signaling
--- Stop Module: scf at Fri Jan 24 16:53:04 2025 /rc=_RC_ALL_IS_WELL_ ---
*** files: ozone_148.75.LprOrb ozone_148.75.LoProp.molden ozone_148.75.scf.molden ozone_148.75.ScfOrb ozone_148.75.scf.h5 xmldump
    saved to directory /home/grierjones/DDCASPT2/ozone/ANO-RCC-VDZP/ozone_148.75

>>> COPY /tmp/ozone_148.75/ozone_148.75.scf.h5 /home/grierjones/DDCASPT2/ozone/ANO-RCC-VDZP/ozone_148.75/

*** symbolic link created: INPORB -> ozone_148.75.ScfOrb
--- Start Module: rasscf at Fri Jan 24 16:53:04 2025 ---
 
()()()()()()()()()()()()()()()()()()()()()()()()()()()()()()()()()()()()()()()()()()()()()()()()()()

                                              &RASSCF

                                   only a single process is used
                       available to each process: 2.0 GB of memory, 1 thread?
()()()()()()()()()()()()()()()()()()()()()()()()()()()()()()()()()()()()()()()()()()()()()()()()()()
 
 
 *************** WARNING ****************
 ###############################################################################
 ###############################################################################
 ###                                                                         ###
 ###                                                                         ###
 ###    Too many macro-iterations.                                           ###
 ###                                                                         ###
 ###                                                                         ###
 ###############################################################################
 ###############################################################################
 Too many macro-iterations requested.
 Reset to maximum, new MAXIT=     200
 ****************************************
 
 *************** WARNING ****************
 ###############################################################################
 ###############################################################################
 ###                                                                         ###
 ###                                                                         ###
 ###    Too many SX-iterations.                                              ###
 ###                                                                         ###
 ###                                                                         ###
 ###############################################################################
 ###############################################################################
 Too many SX-iterations requested.
 Reset to maximum, new ITMAX=     100
 ****************************************
 
      Header of the ONEINT file:
      --------------------------
      
      Integrals generated by seward 4.2.0  , Fri Jan 24 16:53:03 2025
 
 
      OrdInt status: non-squared
 
 
      Cartesian coordinates in Angstrom:
      -----------------------------------------------------
      No.  Label        X            Y            Z        
      -----------------------------------------------------
       1   O1         0.34421700   1.23077200   0.00000000
       2   O2         0.00000000   0.00000000   0.00000000
       3   O3         0.34421700  -1.23077200   0.00000000
      -----------------------------------------------------
      Nuclear repulsion energy =   66.75909374
 
++    Wave function specifications:
      -----------------------------
 
      Number of closed shell electrons          20
      Number of electrons in active shells       4
      Max number of holes in RAS1 space          0
      Max nr of electrons in RAS3 space          0
      Number of inactive orbitals               10
      Number of active orbitals                  3
      Number of secondary orbitals              29
      Spin quantum number                      0.0
      State symmetry                             1
--
 
++    Orbital specifications:
      -----------------------
 
      Symmetry species                           1
                                                 a
      Frozen orbitals                            0
      Inactive orbitals                         10
      Active orbitals                            3
      RAS1 orbitals                              0
      RAS2 orbitals                              3
      RAS3 orbitals                              0
      Secondary orbitals                        29
      Deleted orbitals                           0
      Number of basis functions                 42
--
 
++    CI expansion specifications:
      ----------------------------
 
      Number of CSFs                             6
      Number of determinants                     6
      Number of root(s) required                 1
      Root chosen for geometry opt.              1
      CI root used                               1
         
      highest root included in the CI            1
      max. size of the explicit Hamiltonian      6
--
 
++    Optimization specifications:
      ----------------------------
 
      RASSCF algorithm: Conventional
      Maximum number of macro iterations       200
      Maximum number of SX iterations          100
      Threshold for RASSCF energy            0.100E-07
      Threshold for max MO rotation          0.100E+00
      Threshold for max BLB element          0.100E-03
      Level shift parameter                  0.500E+00
      Make Quasi-Newton update
--
 
      The MO-coefficients are taken from the file:
      /home/grierjones/DDCASPT2/ozone/ANO-RCC-VDZP/ozone_148.50/ozone_148.50.RasOrb                                                   
      Title: RASSCF average (pseudo-natural) orbitals                                      
 
      Total molecular charge    0.00
 
      ************************************************************************************************************************
      *                                                                                                                      *
      *                                            Wave function control section                                             *
      *                                                                                                                      *
      ************************************************************************************************************************
 
 
                                         RASSCF iterations: Energy and convergence statistics
                                         ----------------------------------------------------
 
      Iter CI   SX   CI       RASSCF       Energy    max ROT     max BLB   max BLB  Level Ln srch  Step   QN   Walltime
          iter iter root      energy       change     param      element    value   shift minimum  type update hh:mm:ss
 Nr of preliminary CI iterations:   1
        1   1    3    1  -224.52302559    0.00E+00   0.62E-03    9  19 1 -0.15E-02*  0.20   0.00    SX    NO    0:00:00
        2   1    3    1  -224.52303086   -0.53E-05*  0.35E-03    7  14 1 -0.82E-03*  0.20   0.00    SX    NO    0:00:00
        3   1    3    1  -224.52303199   -0.11E-05* -0.24E-03    7  14 1 -0.56E-03*  0.20   0.00    SX    NO    0:00:00
        4   1    3    1  -224.52303237   -0.38E-06*  0.11E-03    7  14 1 -0.27E-03*  0.20   0.00    SX    NO    0:00:00
        5   1    3    1  -224.52303248   -0.11E-06*  0.33E-03    7  14 1 -0.21E-03*  0.20   2.36    QN   YES    0:00:00
        6   1    3    1  -224.52303253   -0.51E-07* -0.15E-03    7  14 1  0.19E-03*  0.20   0.64    QN   YES    0:00:00
        7   1    3    1  -224.52303256   -0.25E-07*  0.22E-04    8  19 1  0.10E-03*  0.20   0.67    QN   YES    0:00:00
        8   1    3    1  -224.52303256   -0.36E-08  -0.44E-05    7  14 1  0.10E-04   0.20   0.75    QN   YES    0:00:00
      Convergence after  8 iterations
 
  Dmat in MO in SXCTL bf call to SXHAM                                                                                    
  mat. size =     3x    3
 
        1.9890788862946585
       -0.0000000000035024      1.7029745932111782
        0.0010819477156976     -0.0000000000066066      0.3079465204941630
        9   1    3    1  -224.52303256   -0.46E-10  -0.44E-05    8  19 1  0.18E-04   0.20   0.75    QN   YES    0:00:00
 
      ************************************************************************************************************************
                                                      Wave function printout:
                       occupation of active orbitals, and spin coupling of open shells (u,d: Spin up or down)
      ************************************************************************************************************************
 
      Note: transformation to natural orbitals
      has been made, which may change the order of the CSFs.
 
      printout of CI-coefficients larger than  0.05 for root  1
      energy=    -224.523033
      conf/sym  111     Coeff  Weight
             1  220  -0.91980 0.84603
             3  202   0.38537 0.14851
             6  022   0.07389 0.00546
 
      Natural orbitals and occupation numbers for root  1
      sym 1:   1.989080   1.702975   0.307946
 
      ************************************************************************************************************************
      *                                                                                                                      *
      *                                                    Final results                                                     *
      *                                                                                                                      *
      ************************************************************************************************************************
 
 
++    Wave function specifications:
      -----------------------------
 
      Number of closed shell electrons          20
      Number of electrons in active shells       4
      Max number of holes in RAS1 space          0
      Max nr of electrons in RAS3 space          0
      Number of inactive orbitals               10
      Number of active orbitals                  3
      Number of secondary orbitals              29
      Spin quantum number                      0.0
      State symmetry                             1
--
 
++    Orbital specifications:
      -----------------------
 
      Symmetry species                           1
                                                 a
      Frozen orbitals                            0
      Inactive orbitals                         10
      Active orbitals                            3
      RAS1 orbitals                              0
      RAS2 orbitals                              3
      RAS3 orbitals                              0
      Secondary orbitals                        29
      Deleted orbitals                           0
      Number of basis functions                 42
--
 
++    CI expansion specifications:
      ----------------------------
 
      Number of CSFs                             6
      Number of determinants                     6
      Number of root(s) required                 1
      CI root used                               1
      highest root included in the CI            1
      Root passed to geometry opt.               1
--
 
++    Final optimization conditions:
      ------------------------------
 
      Average CI energy                            -224.52303256
      RASSCF energy for state  1                   -224.52303256
      Super-CI energy                                -0.00000000
      RASSCF energy change                           -0.00000000
      Max change in MO coefficients              -0.405E-05
      Max non-diagonal density matrix element    -0.439E-05
      Maximum BLB matrix element                  0.178E-04
      (orbital pair   8,  19 in symmetry   1)
      Norm of electronic gradient            0.347E-04
--
 
 
      Final state energy(ies):
      ------------------------
 
::    RASSCF root number  1 Total energy:   -224.52303256
 
++    Molecular orbitals:
      -------------------
 
      Pseudonatural active orbitals and approximate occupation numbers
 
 
 
 
      Molecular orbitals for symmetry species 1: a  
 
 
      Orbital                1         2         3         4         5         6         7         8         9        10
      Energy          -20.7883  -20.7297  -20.7297   -1.6914   -1.4498   -1.0615   -0.7959   -0.7889   -0.6023   -0.4855
      Occ. No.          2.0000    2.0000    2.0000    2.0000    2.0000    2.0000    2.0000    2.0000    2.0000    2.0000
 
    1 O1     1s         0.0053   -0.7072    0.7072   -0.0149    0.0090    0.0134   -0.0058   -0.0177    0.0062    0.0030
    2 O1     2s         0.0000   -0.0007    0.0005    0.3435   -0.5893    0.6299   -0.1162   -0.3742    0.0738    0.0018
    3 O1     3s        -0.0000   -0.0000   -0.0001   -0.0237    0.0120    0.0174   -0.0110   -0.0251    0.0076    0.0197
    4 O1     2px        0.0002    0.0002   -0.0002   -0.0250    0.0374    0.0728    0.3454   -0.2594   -0.6434    0.6452
    5 O1     3px        0.0004    0.0001    0.0001    0.0084   -0.0048   -0.0108   -0.0280    0.0142   -0.0040    0.0334
    6 O1     2py       -0.0001    0.0008   -0.0009   -0.1085    0.0873    0.1748   -0.2163   -0.3899    0.2945    0.0867
    7 O1     3py        0.0001   -0.0005    0.0003    0.0250   -0.0171   -0.0241    0.0158    0.0275    0.0014   -0.0212
    8 O1     2pz        0.0000    0.0000   -0.0000    0.0000   -0.0000    0.0000   -0.0000   -0.0000    0.0000   -0.0000
    9 O1     3pz        0.0000    0.0000    0.0000    0.0000    0.0000    0.0000   -0.0000    0.0000    0.0000   -0.0000
   10 O1     3d2-      -0.0000   -0.0000    0.0000    0.0064   -0.0087   -0.0077   -0.0151    0.0188    0.0095   -0.0020
   11 O1     3d1-       0.0000   -0.0000   -0.0000   -0.0000   -0.0000    0.0000   -0.0000    0.0000   -0.0000   -0.0000
   12 O1     3d0        0.0001    0.0001   -0.0002   -0.0098    0.0093    0.0062   -0.0062   -0.0161    0.0055    0.0042
   13 O1     3d1+       0.0000   -0.0000    0.0000   -0.0000    0.0000   -0.0000   -0.0000    0.0000    0.0000    0.0000
   14 O1     3d2+       0.0000   -0.0002    0.0001   -0.0171    0.0118    0.0122   -0.0197   -0.0239    0.0144    0.0094
   15 O2     1s         1.0000    0.0000   -0.0076   -0.0226    0.0000   -0.0130   -0.0058   -0.0000    0.0000    0.0228
   16 O2     2s         0.0005    0.0000   -0.0007    0.6389   -0.0000   -0.6338   -0.0820    0.0000    0.0000    0.2970
   17 O2     3s        -0.0007    0.0000   -0.0006   -0.0351    0.0000   -0.0147   -0.0072   -0.0000    0.0000    0.0430
   18 O2     2px        0.0006    0.0000   -0.0001    0.0742   -0.0000    0.1037    0.6616    0.0000    0.0000   -0.6707
   19 O2     3px       -0.0011    0.0000   -0.0002   -0.0166    0.0000   -0.0116   -0.0435   -0.0000   -0.0000   -0.0457
   20 O2     2py       -0.0000    0.0009    0.0000   -0.0000   -0.2994    0.0000   -0.0000    0.4902   -0.1312    0.0000
   21 O2     3py       -0.0000    0.0011    0.0000    0.0000    0.0764   -0.0000    0.0000   -0.0761   -0.0002    0.0000
   22 O2     2pz       -0.0000   -0.0000   -0.0000   -0.0000    0.0000    0.0000    0.0000   -0.0000    0.0000   -0.0000
   23 O2     3pz       -0.0000   -0.0000   -0.0000   -0.0000    0.0000   -0.0000    0.0000   -0.0000   -0.0000    0.0000
   24 O2     3d2-       0.0000    0.0001    0.0000   -0.0000   -0.0273    0.0000   -0.0000    0.0205   -0.0399    0.0000
   25 O2     3d1-      -0.0000   -0.0000    0.0000   -0.0000   -0.0000    0.0000    0.0000   -0.0000    0.0000   -0.0000
   26 O2     3d0       -0.0001   -0.0000    0.0003   -0.0173    0.0000   -0.0025   -0.0133   -0.0000    0.0000    0.0221
   27 O2     3d1+      -0.0000    0.0000   -0.0000   -0.0000   -0.0000   -0.0000    0.0000    0.0000    0.0000    0.0000
   28 O2     3d2+       0.0000   -0.0000    0.0003   -0.0249    0.0000   -0.0001    0.0171    0.0000    0.0000    0.0274
   29 O3     1s         0.0053    0.7072    0.7072   -0.0149   -0.0090    0.0134   -0.0058    0.0177   -0.0062    0.0030
   30 O3     2s         0.0000    0.0007    0.0005    0.3435    0.5893    0.6299   -0.1162    0.3742   -0.0738    0.0018
   31 O3     3s        -0.0000    0.0000   -0.0001   -0.0237   -0.0120    0.0174   -0.0110    0.0251   -0.0076    0.0197
   32 O3     2px        0.0002   -0.0002   -0.0002   -0.0250   -0.0374    0.0728    0.3454    0.2594    0.6434    0.6452
   33 O3     3px        0.0004   -0.0001    0.0001    0.0084    0.0048   -0.0108   -0.0280   -0.0142    0.0040    0.0334
   34 O3     2py        0.0001    0.0008    0.0009    0.1085    0.0873   -0.1748    0.2163   -0.3899    0.2945   -0.0867
   35 O3     3py       -0.0001   -0.0005   -0.0003   -0.0250   -0.0171    0.0241   -0.0158    0.0275    0.0014    0.0212
   36 O3     2pz        0.0000   -0.0000    0.0000    0.0000   -0.0000    0.0000    0.0000   -0.0000    0.0000    0.0000
   37 O3     3pz        0.0000    0.0000   -0.0000    0.0000   -0.0000   -0.0000   -0.0000    0.0000    0.0000   -0.0000
   38 O3     3d2-       0.0000   -0.0000   -0.0000   -0.0064   -0.0087    0.0077    0.0151    0.0188    0.0095    0.0020
   39 O3     3d1-       0.0000   -0.0000    0.0000    0.0000    0.0000    0.0000    0.0000   -0.0000    0.0000   -0.0000
   40 O3     3d0        0.0001   -0.0001   -0.0002   -0.0098   -0.0093    0.0062   -0.0062    0.0161   -0.0055    0.0042
   41 O3     3d1+      -0.0000   -0.0000    0.0000   -0.0000    0.0000    0.0000   -0.0000    0.0000   -0.0000    0.0000
   42 O3     3d2+       0.0000    0.0002    0.0001   -0.0171   -0.0118    0.0122   -0.0197    0.0239   -0.0144    0.0094
 
 
      Orbital               11        12        13        14        15        16        17        18        19        20
      Energy            0.0000    0.0000    0.0000    0.1914    0.2898    0.4651    0.4658    0.5399    0.6214    0.6864
      Occ. No.          1.9891    1.7030    0.3079    0.0000    0.0000    0.0000    0.0000    0.0000    0.0000    0.0000
 
    1 O1     1s        -0.0000   -0.0000   -0.0000   -0.0367   -0.1565   -0.0000   -0.0308    0.0261   -0.0328    0.0060
    2 O1     2s        -0.0000    0.0000   -0.0000   -0.4051   -1.1440   -0.0000   -0.2016    0.1825   -0.0838    0.0087
    3 O1     3s        -0.0000   -0.0000    0.0000   -0.0427   -0.4009   -0.0000   -0.1216    0.2081   -0.1139    0.0465
    4 O1     2px        0.0000   -0.0000    0.0000    0.0009    0.2573   -0.0000   -0.0347   -0.1030   -0.1397   -0.0462
    5 O1     3px        0.0000    0.0000   -0.0000    0.0036    0.2053    0.0000    0.4528    0.1460   -0.1752   -0.8095
    6 O1     2py       -0.0000   -0.0000    0.0000    0.8076    0.5486    0.0000    0.0998   -0.1765   -0.4260    0.1185
    7 O1     3py        0.0000    0.0000    0.0000    0.2364    0.6138    0.0000    0.2631   -0.7762    0.1374   -0.0599
    8 O1     2pz        0.2946   -0.7064    0.6806   -0.0000   -0.0000    0.0113   -0.0000   -0.0000    0.0000   -0.0000
    9 O1     3pz       -0.0296   -0.0086   -0.0528   -0.0000   -0.0000    0.4825   -0.0000    0.0000    0.0000   -0.0000
   10 O1     3d2-      -0.0000    0.0000   -0.0000   -0.0082   -0.0169    0.0000    0.0172   -0.0104   -0.0808   -0.0004
   11 O1     3d1-      -0.0286    0.0191    0.0068   -0.0000    0.0000    0.0319   -0.0000    0.0000   -0.0000   -0.0000
   12 O1     3d0        0.0000   -0.0000    0.0000   -0.0019    0.0175    0.0000    0.0119    0.0037    0.0583   -0.0167
   13 O1     3d1+      -0.0070    0.0039    0.0015    0.0000   -0.0000    0.0110   -0.0000    0.0000   -0.0000   -0.0000
   14 O1     3d2+       0.0000   -0.0000    0.0000   -0.0123    0.0261    0.0000    0.0390   -0.0003    0.0691   -0.0187
   15 O2     1s         0.0000   -0.0000   -0.0000    0.1293    0.0000    0.0000    0.0886   -0.1511    0.0000   -0.0000
   16 O2     2s         0.0000   -0.0000    0.0000    1.1751    0.0000    0.0000    0.5302   -0.8764    0.0000   -0.0000
   17 O2     3s         0.0000   -0.0000    0.0000    0.2835    0.0000    0.0000    0.2365   -0.2944    0.0000   -0.0000
   18 O2     2px       -0.0000    0.0000    0.0000    0.5417    0.0000   -0.0000   -0.0860   -0.0940    0.0000   -0.0000
   19 O2     3px       -0.0000   -0.0000   -0.0000    0.1521    0.0000    0.0000    0.4652   -0.0931   -0.0000    0.0000
   20 O2     2py        0.0000   -0.0000    0.0000   -0.0000    1.3026   -0.0000   -0.0000   -0.0000   -0.4380    0.1257
   21 O2     3py        0.0000    0.0000   -0.0000   -0.0000    1.0588    0.0000    0.0000    0.0000    0.6820   -0.1504
   22 O2     2pz        0.7911    0.0000   -0.6563    0.0000    0.0000   -0.2599    0.0000    0.0000   -0.0000    0.0000
   23 O2     3pz       -0.0108   -0.0000   -0.0725   -0.0000   -0.0000    0.3534   -0.0000   -0.0000   -0.0000    0.0000
   24 O2     3d2-       0.0000    0.0000    0.0000   -0.0000    0.0414   -0.0000    0.0000    0.0000    0.0755    0.0069
   25 O2     3d1-       0.0000   -0.0440   -0.0000   -0.0000    0.0000    0.0000   -0.0000   -0.0000   -0.0000    0.0000
   26 O2     3d0       -0.0000    0.0000   -0.0000    0.0295    0.0000   -0.0000   -0.0447    0.0965    0.0000   -0.0000
   27 O2     3d1+       0.0240   -0.0000   -0.0120    0.0000    0.0000   -0.0233    0.0000    0.0000    0.0000   -0.0000
   28 O2     3d2+      -0.0000    0.0000    0.0000    0.0506    0.0000   -0.0000   -0.1011    0.1147    0.0000   -0.0000
   29 O3     1s         0.0000    0.0000    0.0000   -0.0367    0.1565   -0.0000   -0.0308    0.0261    0.0328   -0.0060
   30 O3     2s         0.0000    0.0000    0.0000   -0.4051    1.1440   -0.0000   -0.2016    0.1825    0.0838   -0.0087
   31 O3     3s        -0.0000    0.0000   -0.0000   -0.0427    0.4009   -0.0000   -0.1216    0.2081    0.1139   -0.0465
   32 O3     2px       -0.0000   -0.0000   -0.0000    0.0009   -0.2573   -0.0000   -0.0347   -0.1030    0.1397    0.0462
   33 O3     3px        0.0000   -0.0000    0.0000    0.0036   -0.2053    0.0000    0.4528    0.1460    0.1752    0.8095
   34 O3     2py       -0.0000    0.0000   -0.0000   -0.8076    0.5486   -0.0000   -0.0998    0.1765   -0.4260    0.1185
   35 O3     3py       -0.0000    0.0000    0.0000   -0.2364    0.6138   -0.0000   -0.2631    0.7762    0.1374   -0.0599
   36 O3     2pz        0.2946    0.7064    0.6806    0.0000   -0.0000    0.0113   -0.0000   -0.0000   -0.0000    0.0000
   37 O3     3pz       -0.0296    0.0086   -0.0528    0.0000   -0.0000    0.4825   -0.0000    0.0000   -0.0000    0.0000
   38 O3     3d2-       0.0000   -0.0000    0.0000    0.0082   -0.0169   -0.0000   -0.0172    0.0104   -0.0808   -0.0004
   39 O3     3d1-       0.0286    0.0191   -0.0068    0.0000    0.0000   -0.0319    0.0000    0.0000    0.0000   -0.0000
   40 O3     3d0        0.0000    0.0000    0.0000   -0.0019   -0.0175    0.0000    0.0119    0.0037   -0.0583    0.0167
   41 O3     3d1+      -0.0070   -0.0039    0.0015   -0.0000    0.0000    0.0110   -0.0000    0.0000    0.0000    0.0000
   42 O3     3d2+       0.0000    0.0000    0.0000   -0.0123   -0.0261    0.0000    0.0390   -0.0003   -0.0691    0.0187
 
 
      Orbital               21        22        23        24        25        26        27        28        29        30
      Energy            0.6930    0.8533    0.9685    0.9945    1.0194    1.6907    1.7198    1.7221    1.7709    1.9799
      Occ. No.          0.0000    0.0000    0.0000    0.0000    0.0000    0.0000    0.0000    0.0000    0.0000    0.0000
 
    1 O1     1s        -0.0000   -0.0188   -0.0316   -0.0000    0.0910   -0.0000   -0.0058   -0.0000   -0.1115   -0.0973
    2 O1     2s         0.0000   -0.1010   -0.1702   -0.0000    0.5236   -0.0000   -0.0447    0.0000   -0.8166   -0.7454
    3 O1     3s        -0.0000    0.4595   -0.0433    0.0000   -0.0004   -0.0000   -0.0443    0.0000   -1.0709   -0.8728
    4 O1     2px        0.0000   -0.0072   -0.4349    0.0000   -0.2064   -0.0000    0.0775   -0.0000    0.2213    0.0888
    5 O1     3px        0.0000    0.0483   -0.8562   -0.0000   -0.2119    0.0000    0.0422   -0.0000    0.1479    0.1604
    6 O1     2py       -0.0000   -0.0286    0.0595    0.0000    0.0591    0.0000    0.0173   -0.0000    0.2470    0.4949
    7 O1     3py        0.0000    0.3117    0.0157   -0.0000    0.6831    0.0000    0.0234   -0.0000    0.2933    0.5330
    8 O1     2pz       -0.0928   -0.0000   -0.0000    0.4871    0.0000   -0.1736    0.0000   -0.0684    0.0000   -0.0000
    9 O1     3pz       -0.8352   -0.0000   -0.0000    0.8910    0.0000    0.0266   -0.0000   -0.0489   -0.0000   -0.0000
   10 O1     3d2-      -0.0000   -0.0513   -0.0437   -0.0000   -0.0093    0.0000    0.2496   -0.0000    0.2723   -0.1650
   11 O1     3d1-      -0.0282   -0.0000    0.0000    0.0171    0.0000   -0.4035   -0.0000   -0.2619   -0.0000   -0.0000
   12 O1     3d0        0.0000    0.0462    0.0491    0.0000   -0.0672   -0.0000    0.3527   -0.0000   -0.1156    0.0499
   13 O1     3d1+      -0.0012   -0.0000   -0.0000    0.0294    0.0000   -0.2080    0.0000    0.3586    0.0000    0.0000
   14 O1     3d2+       0.0000    0.0588    0.0202    0.0000   -0.1371    0.0000   -0.1000    0.0000    0.1691   -0.1807
   15 O2     1s         0.0000    0.0126   -0.0169   -0.0000    0.0000    0.0000    0.0138   -0.0000    0.0000    0.2480
   16 O2     2s        -0.0000    0.0653   -0.0555   -0.0000    0.0000    0.0000    0.1008   -0.0000    0.0000    1.7596
   17 O2     3s        -0.0000    0.5603   -0.0148    0.0000    0.0000   -0.0000    0.1096   -0.0000    0.0000    1.7339
   18 O2     2px       -0.0000   -0.0102    0.6321    0.0000    0.0000   -0.0000    0.0707   -0.0000    0.0000    0.1026
   19 O2     3px       -0.0000   -0.0539    1.5632    0.0000    0.0000    0.0000   -0.0759    0.0000    0.0000    0.1519
   20 O2     2py       -0.0000    0.0000    0.0000    0.0000   -0.7578    0.0000    0.0000   -0.0000    0.8004    0.0000
   21 O2     3py        0.0000   -0.0000    0.0000    0.0000   -1.0987    0.0000    0.0000   -0.0000    0.9682    0.0000
   22 O2     2pz        0.0000    0.0000    0.0000   -0.6654   -0.0000   -0.0000   -0.0000   -0.0592   -0.0000   -0.0000
   23 O2     3pz        0.0000    0.0000    0.0000   -1.6253   -0.0000   -0.0000    0.0000    0.1081    0.0000    0.0000
   24 O2     3d2-      -0.0000   -0.0000   -0.0000   -0.0000    0.1792   -0.0000   -0.0000    0.0000   -0.3060    0.0000
   25 O2     3d1-       0.0760    0.0000   -0.0000    0.0000    0.0000    0.5784   -0.0000   -0.0000   -0.0000    0.0000
   26 O2     3d0       -0.0000    0.0488    0.0745    0.0000    0.0000    0.0000    0.5389   -0.0000    0.0000    0.1108
   27 O2     3d1+      -0.0000   -0.0000   -0.0000    0.0470    0.0000    0.0000    0.0000    0.6486    0.0000   -0.0000
   28 O2     3d2+      -0.0000    0.0685    0.0351    0.0000    0.0000   -0.0000   -0.3584    0.0000    0.0000    0.2322
   29 O3     1s         0.0000   -0.0188   -0.0316    0.0000   -0.0910   -0.0000   -0.0058   -0.0000    0.1115   -0.0973
   30 O3     2s         0.0000   -0.1010   -0.1702    0.0000   -0.5236    0.0000   -0.0447   -0.0000    0.8166   -0.7454
   31 O3     3s         0.0000    0.4595   -0.0433    0.0000    0.0004    0.0000   -0.0443   -0.0000    1.0709   -0.8728
   32 O3     2px       -0.0000   -0.0072   -0.4349   -0.0000    0.2064   -0.0000    0.0775   -0.0000   -0.2213    0.0888
   33 O3     3px       -0.0000    0.0483   -0.8562   -0.0000    0.2119   -0.0000    0.0422    0.0000   -0.1479    0.1604
   34 O3     2py       -0.0000    0.0286   -0.0595   -0.0000    0.0591   -0.0000   -0.0173   -0.0000    0.2470   -0.4949
   35 O3     3py        0.0000   -0.3117   -0.0157   -0.0000    0.6831    0.0000   -0.0234   -0.0000    0.2933   -0.5330
   36 O3     2pz        0.0928   -0.0000   -0.0000    0.4871    0.0000    0.1736   -0.0000   -0.0684    0.0000   -0.0000
   37 O3     3pz        0.8352   -0.0000   -0.0000    0.8910    0.0000   -0.0266   -0.0000   -0.0489   -0.0000   -0.0000
   38 O3     3d2-      -0.0000    0.0513    0.0437    0.0000   -0.0093    0.0000   -0.2496    0.0000    0.2723    0.1650
   39 O3     3d1-      -0.0282   -0.0000    0.0000   -0.0171   -0.0000   -0.4035    0.0000    0.2619    0.0000   -0.0000
   40 O3     3d0       -0.0000    0.0462    0.0491   -0.0000    0.0672   -0.0000    0.3527   -0.0000    0.1156    0.0499
   41 O3     3d1+       0.0012   -0.0000   -0.0000    0.0294    0.0000    0.2080    0.0000    0.3586    0.0000   -0.0000
   42 O3     3d2+      -0.0000    0.0588    0.0202   -0.0000    0.1371   -0.0000   -0.1000    0.0000   -0.1691   -0.1807
 
 
      Orbital               31        32        33        34        35        36        37        38        39        40
      Energy            2.0609    2.1085    2.1394    2.3572    2.3616    2.6584    2.8596    2.9002    2.9571    3.5282
      Occ. No.          0.0000    0.0000    0.0000    0.0000    0.0000    0.0000    0.0000    0.0000    0.0000    0.0000
 
    1 O1     1s        -0.1967   -0.0000    0.1348    0.0707   -0.0000    0.0415    0.0000   -0.0862    0.0354   -0.0641
    2 O1     2s        -1.3206    0.0000    0.8912    0.4751   -0.0000    0.1641   -0.0000   -0.6431    0.3835   -0.4128
    3 O1     3s        -1.0832   -0.0000    0.6596    0.3240   -0.0000   -0.1289   -0.0000   -0.5194    0.4812   -0.1786
    4 O1     2px        0.1923   -0.0000   -0.1351    0.0357   -0.0000    0.0977   -0.0000   -0.1752   -0.1515   -0.1972
    5 O1     3px        0.2274   -0.0000   -0.2011    0.1808   -0.0000    0.2329   -0.0000   -0.2649   -0.1200   -0.1689
    6 O1     2py        0.4407    0.0000   -0.2870   -0.2836    0.0000    0.0052    0.0000    0.5057   -0.3905    0.3541
    7 O1     3py       -0.0018    0.0000    0.0658   -0.1674    0.0000    0.2212    0.0000    0.3914   -0.4074    0.1009
    8 O1     2pz        0.0000    0.0032   -0.0000   -0.0000   -0.1065   -0.0000   -0.3322    0.0000    0.0000   -0.0000
    9 O1     3pz        0.0000   -0.0388    0.0000   -0.0000   -0.2059    0.0000   -0.4253    0.0000   -0.0000   -0.0000
   10 O1     3d2-      -0.0821    0.0000    0.4102   -0.2162    0.0000   -0.4110    0.0000    0.4077    0.4836    0.3825
   11 O1     3d1-      -0.0000    0.2946   -0.0000    0.0000    0.2608   -0.0000    0.7270   -0.0000    0.0000    0.0000
   12 O1     3d0        0.3687    0.0000    0.4745    0.4924   -0.0000    0.1021    0.0000    0.3513   -0.4091    0.0802
   13 O1     3d1+       0.0000   -0.6473    0.0000    0.0000    0.6249   -0.0000   -0.0495    0.0000    0.0000    0.0000
   14 O1     3d2+      -0.3211   -0.0000   -0.0763   -0.3241    0.0000    0.4531    0.0000    0.5244   -0.4833    0.5416
   15 O2     1s        -0.0000    0.0000    0.0000   -0.0827    0.0000    0.1248    0.0000    0.2193    0.0000   -0.0000
   16 O2     2s        -0.0000    0.0000    0.0000   -0.6929    0.0000    0.5806    0.0000    1.4847    0.0000   -0.0000
   17 O2     3s        -0.0000    0.0000    0.0000   -0.8073    0.0000   -0.2005    0.0000    0.9354    0.0000   -0.0000
   18 O2     2px       -0.0000    0.0000   -0.0000   -0.4861    0.0000   -0.1624    0.0000    0.8703    0.0000   -0.0000
   19 O2     3px       -0.0000    0.0000    0.0000   -0.4565    0.0000   -0.3946    0.0000    0.7103    0.0000   -0.0000
   20 O2     2py        1.4433   -0.0000   -1.0084    0.0000   -0.0000    0.0000   -0.0000    0.0000   -0.7899    0.3902
   21 O2     3py        1.5667   -0.0000   -1.0742    0.0000   -0.0000   -0.0000   -0.0000   -0.0000    0.1779    0.0899
   22 O2     2pz        0.0000   -0.0000    0.0000    0.0000    0.4060    0.0000    0.7433   -0.0000    0.0000   -0.0000
   23 O2     3pz        0.0000   -0.0000   -0.0000    0.0000    0.3241    0.0000    0.7425   -0.0000    0.0000   -0.0000
   24 O2     3d2-       0.3649   -0.0000   -0.2966   -0.0000   -0.0000   -0.0000    0.0000   -0.0000    0.1701    1.1070
   25 O2     3d1-       0.0000   -0.0384   -0.0000   -0.0000    0.0000   -0.0000    0.0000    0.0000   -0.0000    0.0000
   26 O2     3d0       -0.0000    0.0000   -0.0000   -0.3091    0.0000    0.5569   -0.0000   -0.4574   -0.0000    0.0000
   27 O2     3d1+       0.0000    0.0000    0.0000   -0.0000   -0.4782   -0.0000    0.6696   -0.0000    0.0000   -0.0000
   28 O2     3d2+      -0.0000    0.0000    0.0000    0.3333   -0.0000    0.1802    0.0000    0.3730    0.0000   -0.0000
   29 O3     1s         0.1967   -0.0000   -0.1348    0.0707   -0.0000    0.0415   -0.0000   -0.0862   -0.0354    0.0641
   30 O3     2s         1.3206   -0.0000   -0.8912    0.4751   -0.0000    0.1641   -0.0000   -0.6431   -0.3835    0.4128
   31 O3     3s         1.0832   -0.0000   -0.6596    0.3240   -0.0000   -0.1289   -0.0000   -0.5194   -0.4812    0.1786
   32 O3     2px       -0.1923    0.0000    0.1351    0.0357   -0.0000    0.0977   -0.0000   -0.1752    0.1515    0.1972
   33 O3     3px       -0.2274    0.0000    0.2011    0.1808   -0.0000    0.2329   -0.0000   -0.2649    0.1200    0.1689
   34 O3     2py        0.4407   -0.0000   -0.2870    0.2836   -0.0000   -0.0052   -0.0000   -0.5057   -0.3905    0.3541
   35 O3     3py       -0.0018   -0.0000    0.0658    0.1674   -0.0000   -0.2212   -0.0000   -0.3914   -0.4074    0.1009
   36 O3     2pz       -0.0000   -0.0032    0.0000   -0.0000   -0.1065   -0.0000   -0.3322    0.0000   -0.0000    0.0000
   37 O3     3pz       -0.0000    0.0388    0.0000   -0.0000   -0.2059    0.0000   -0.4253    0.0000   -0.0000    0.0000
   38 O3     3d2-      -0.0821    0.0000    0.4102    0.2162   -0.0000    0.4110   -0.0000   -0.4077    0.4836    0.3825
   39 O3     3d1-      -0.0000    0.2946   -0.0000   -0.0000   -0.2608    0.0000   -0.7270    0.0000   -0.0000    0.0000
   40 O3     3d0       -0.3687   -0.0000   -0.4745    0.4924   -0.0000    0.1021    0.0000    0.3513    0.4091   -0.0802
   41 O3     3d1+      -0.0000    0.6473   -0.0000    0.0000    0.6249    0.0000   -0.0495    0.0000    0.0000   -0.0000
   42 O3     3d2+       0.3211    0.0000    0.0763   -0.3241    0.0000    0.4531    0.0000    0.5244    0.4833   -0.5416
 
 
      Orbital               41        42
      Energy            3.5316    4.2570
      Occ. No.          0.0000    0.0000
 
    1 O1     1s         0.0000    0.2111
    2 O1     2s         0.0000    1.4037
    3 O1     3s         0.0000    0.7232
    4 O1     2px        0.0000   -0.4445
    5 O1     3px        0.0000   -0.2095
    6 O1     2py       -0.0000   -0.9722
    7 O1     3py       -0.0000   -0.4168
    8 O1     2pz       -0.3226    0.0000
    9 O1     3pz       -0.2077   -0.0000
   10 O1     3d2-      -0.0000    0.5313
   11 O1     3d1-       0.6329    0.0000
   12 O1     3d0       -0.0000   -0.3305
   13 O1     3d1+       0.2470    0.0000
   14 O1     3d2+      -0.0000   -0.3222
   15 O2     1s        -0.0000   -0.3901
   16 O2     2s         0.0000   -2.7436
   17 O2     3s         0.0000   -1.7439
   18 O2     2px       -0.0000   -0.2355
   19 O2     3px       -0.0000    0.0202
   20 O2     2py       -0.0000    0.0000
   21 O2     3py       -0.0000   -0.0000
   22 O2     2pz       -0.0000    0.0000
   23 O2     3pz       -0.0000   -0.0000
   24 O2     3d2-      -0.0000    0.0000
   25 O2     3d1-       1.0850    0.0000
   26 O2     3d0       -0.0000    0.6503
   27 O2     3d1+      -0.0000   -0.0000
   28 O2     3d2+      -0.0000    1.1750
   29 O3     1s        -0.0000    0.2111
   30 O3     2s        -0.0000    1.4037
   31 O3     3s        -0.0000    0.7232
   32 O3     2px       -0.0000   -0.4445
   33 O3     3px       -0.0000   -0.2095
   34 O3     2py       -0.0000    0.9722
   35 O3     3py       -0.0000    0.4168
   36 O3     2pz        0.3226   -0.0000
   37 O3     3pz        0.2077   -0.0000
   38 O3     3d2-      -0.0000   -0.5313
   39 O3     3d1-       0.6329    0.0000
   40 O3     3d0        0.0000   -0.3305
   41 O3     3d1+      -0.2470   -0.0000
   42 O3     3d2+       0.0000   -0.3222
--
 
      Von Neumann Entropy (Root  1) =  0.62096
 

      Mulliken population analysis for root number:  1
      -----------------------------------------------
 
 
++    Molecular charges:
      ------------------
 
      Mulliken charges per centre and basis function type
      ---------------------------------------------------
 
                O1      O2      O3    
      1s       2.0003  2.0001  2.0003
      2s       1.9274  1.7178  1.9274
      2px      1.9639  1.7291  1.9639
      2pz      1.2225  1.5194  1.2225
      2py      0.9188  0.9195  0.9188
      3s      -0.0094 -0.0231 -0.0094
      3px     -0.0206 -0.0444 -0.0206
      3pz     -0.0094 -0.0083 -0.0094
      3py     -0.0068  0.0119 -0.0068
      3d2+     0.0188  0.0289  0.0188
      3d1+     0.0009  0.0030  0.0009
      3d0      0.0056  0.0085  0.0056
      3d1-     0.0139  0.0303  0.0139
      3d2-     0.0101  0.0356  0.0101
      Total    8.0359  7.9281  8.0359
 
      N-E     -0.0359  0.0719 -0.0359
 
      Total electronic charge=   24.000000
 
      Total            charge=   -0.000000
--
 
 

      Expectation values of various properties for root number:  1
      -----------------------------------------------------------
 
 
++    Molecular properties:
      ---------------------
 
      Charge (e):
                      =   -0.0000
      Dipole Moment (Debye):
      Origin of the operator (Ang)=    0.0000    0.0000    0.0000
                   X=  1.8138E-01               Y= -6.8049E-11               Z= -5.6121E-14           Total=  1.8138E-01
      Quadrupole Moment (Debye*Ang):
      Origin of the operator (Ang)=    0.2295    0.0000    0.0000
                  XX= -1.6497E+01              XY= -1.6703E-11              XZ=  2.1084E-13              YY= -1.6153E+01
                  YZ= -3.2082E-13              ZZ= -1.4720E+01
      In traceless form (Debye*Ang)
                  XX= -1.0603E+00              XY= -2.5055E-11              XZ=  3.1626E-13              YY= -5.4458E-01
                  YZ= -4.8123E-13              ZZ=  1.6048E+00
--
 

      LoProp population analysis for root number:  1
      -----------------------------------------------
 
 
++    LoProp analysis:
      ----------------
 
 
 
  Input file to MOLDEN was generated!
 
 
++    Static properties:
      ------------------
 
 
      LoProp Charges per center
 

                   O1       O2       O3    
      Nuclear      8.0000   8.0000   8.0000
      Electronic  -8.0665  -7.8670  -8.0665
 
      Total       -0.0665   0.1330  -0.0665
--
 
 
      Natural Bond Order analysis for root number:  1
 
++    Natural Bond Order analysis
      ---------------------------
      Based on LoProp computed density
      -------------------------------------------------------------------------------------
      Atom A       Atom B       Bond Order | Atom A       Atom B       Bond Order
        O1           O2             1.967  |   O2           O3             1.967
      -------------------------------------------------------------------------------------
      NBO located     12.000 core electrons.
      NBO located      3.974 lone pair electrons.
      NBO located      7.870 electrons involved in    2 bonds.
      The remaining    0.156 electrons are to be considered as diffuse
--
 
--
 
 
  Input file to MOLDEN was generated!
 
      Average orbitals are written to the RASORB file
      Natural orbitals for root   1 are written to the RASORB.1 file
      Spin density orbitals for root   1 are written to the SPDORB.1 file
 
forrtl: warning (525): IEEE_DIVIDE_BY_ZERO is signaling
forrtl: warning (526): IEEE_INVALID is signaling
forrtl: warning (528): IEEE_UNDERFLOW is signaling
--- Stop Module: rasscf at Fri Jan 24 16:53:05 2025 /rc=_RC_ALL_IS_WELL_ ---
*** files: ozone_148.75.LprOrb ozone_148.75.rasscf.molden ozone_148.75.LoProp.molden ozone_148.75.RasOrb ozone_148.75.RasOrb.1 ozone_148.75.rasscf.h5 ozone_148.75.SpdOrb.1 xmldump
    saved to directory /home/grierjones/DDCASPT2/ozone/ANO-RCC-VDZP/ozone_148.75

>>> COPY /tmp/ozone_148.75/ozone_148.75.rasscf.h5 /home/grierjones/DDCASPT2/ozone/ANO-RCC-VDZP/ozone_148.75/

>>> COPY /tmp/ozone_148.75/GMJ_Fock_MO.csv /home/grierjones/DDCASPT2/ozone/ANO-RCC-VDZP/ozone_148.75/ozone_148.75.GMJ_Fock_MO.csv

>>> COPY /tmp/ozone_148.75/GMJ_PT2_Fock_MO.csv /home/grierjones/DDCASPT2/ozone/ANO-RCC-VDZP/ozone_148.75/ozone_148.75.GMJ_PT2_Fock_MO.csv

*** symbolic link created: INPORB -> ozone_148.75.RasOrb
--- Start Module: motra at Fri Jan 24 16:53:05 2025 ---
 
()()()()()()()()()()()()()()()()()()()()()()()()()()()()()()()()()()()()()()()()()()()()()()()()()()

                                               &MOTRA

                                   only a single process is used
                       available to each process: 2.0 GB of memory, 1 thread?
()()()()()()()()()()()()()()()()()()()()()()()()()()()()()()()()()()()()()()()()()()()()()()()()()()
 
 
      *** WARNING: Default frozen orbitals is overwritten by user input.
      *** Default values:   3
 
      Header of the integral files:
      
       Integrals generated by seward 4.2.0  , Fri Jan 24 16:53:03 2025
 
 
      Header of MO coefficients source file:
      * RASSCF average (pseudo-natural) orbitals                                      
 
 
      Cartesian coordinates in Angstrom:
      -----------------------------------------------------
      No.  Label        X            Y            Z        
      -----------------------------------------------------
       1   O1         0.34421700   1.23077200   0.00000000
       2   O2         0.00000000   0.00000000   0.00000000
       3   O3         0.34421700  -1.23077200   0.00000000
      -----------------------------------------------------
      Nuclear repulsion energy =   66.75909374
 
      Orbital specifications:
      -----------------------
 
      Symmetry species:              1
      Number of basis functions:    42
      Frozen orbitals:               0
      Deleted orbitals:              0
      Number of orbitals used:      42

       SYMMETRY  BASIS FUNCTIONS       ORBITALS      INTEGRALS   CPU(SEC)  I/O(SEC)
 
        1 1 1 1   42  42  42  42    42  42  42  42      408156       0.00      0.00

       TOTAL CPU TIME(SEC)    0.37TOTAL I/O TIME(SEC)    0.76
 
--- Stop Module: motra at Fri Jan 24 16:53:06 2025 /rc=_RC_ALL_IS_WELL_ ---
*** files: xmldump
    saved to directory /home/grierjones/DDCASPT2/ozone/ANO-RCC-VDZP/ozone_148.75

>>> COPY /tmp/ozone_148.75/GMJ_one_int_indx.csv /home/grierjones/DDCASPT2/ozone/ANO-RCC-VDZP/ozone_148.75/ozone_148.75.GMJ_one_int_indx.csv

>>> COPY /tmp/ozone_148.75/GMJ_one_int.csv /home/grierjones/DDCASPT2/ozone/ANO-RCC-VDZP/ozone_148.75/ozone_148.75.GMJ_one_int.csv

>>> COPY /tmp/ozone_148.75/GMJ_two_int_indx.csv /home/grierjones/DDCASPT2/ozone/ANO-RCC-VDZP/ozone_148.75/ozone_148.75.GMJ_two_int_indx.csv

>>> COPY /tmp/ozone_148.75/GMJ_two_int.csv /home/grierjones/DDCASPT2/ozone/ANO-RCC-VDZP/ozone_148.75/ozone_148.75.GMJ_two_int.csv

*** symbolic link created: INPORB -> ozone_148.75.RasOrb
--- Start Module: caspt2 at Fri Jan 24 16:53:06 2025 ---
 
()()()()()()()()()()()()()()()()()()()()()()()()()()()()()()()()()()()()()()()()()()()()()()()()()()

                                              &CASPT2

                                   only a single process is used
                       available to each process: 2.0 GB of memory, 1 thread?
()()()()()()()()()()()()()()()()()()()()()()()()()()()()()()()()()()()()()()()()()()()()()()()()()()
 
 Cholesky algorithm in CASPT2 =    1
 
 ###############################################################################
 ###############################################################################
 ###                                                                         ###
 ###                                                                         ###
 ###    User changed nr of frozen orbitals.                                  ###
 ###                                                                         ###
 ###                                                                         ###
 ###############################################################################
 ###############################################################################
 
++    Wave function specifications:
      -----------------------------
 
      Number of closed shell electrons          20
      Number of electrons in active shells       4
      Max number of holes in RAS1 space          0
      Max number of electrons in RAS3 space      0
      Number of inactive orbitals               10
      Number of active orbitals                  3
      Number of secondary orbitals              29
      Spin quantum number                      0.0
      State symmetry                             1
      Number of CSFs                             6
      Number of root(s) available                1
      Root passed to geometry opt.               1
      A file JOBMIX will be created.
      This is a CASSCF or RASSCF reference function
--
 
++    Orbital specifications:
      -----------------------
 
      Symmetry species                           1
                                                 a
      Frozen orbitals                            0
      Inactive orbitals                         10
      Active orbitals                            3
      Secondary orbitals                        29
      Deleted orbitals                           0
      Number of basis functions                 42
--
 
      Type of Fock operator: STANDARD
      Type of 0-order Hamiltonian: STANDARD WITH DEFAULT IPEA
        "IP-EA" denominator shift =      0.25
      The input orbitals and the CI vector will be transformed.
 
--------------------------------------------------------------------------------
 Estimated memory requirements:
  POLY3 :                   250202
  RHS:                      279634
  SIGMA :                   302200
  PRPCTL:                        0
 Available workspace:    230396563
 
++ CASPT2 computation for group   1
 
********************************************************************************
 Multi-State initialization phase begins for group   1
--------------------------------------------------------------------------------
********************************************************************************
 Compute H0 matrices for state    1
--------------------------------------------------------------------------------
--------------------------------------------------------------------------------
 H0 matrices have been computed.
 
********************************************************************************
  CASPT2 EQUATION SOLUTION
--------------------------------------------------------------------------------
 
  Total nr of CASPT2 parameters:
   Before reduction:       86691
   After  reduction:       82880
 
 The contributions to the second order correlation energy in atomic units.
-----------------------------------------------------------------------------------------------------------------------------
  IT.      VJTU        VJTI        ATVX        AIVX        VJAI        BVAT        BJAT        BJAI        TOTAL       RNORM  
-----------------------------------------------------------------------------------------------------------------------------
   1    -0.000000   -0.001428   -0.013950   -0.099321   -0.017213   -0.016901   -0.123478   -0.268872   -0.541162    0.002161
   2    -0.000000   -0.001446   -0.013999   -0.099662   -0.017229   -0.016906   -0.123501   -0.268875   -0.541618    0.000173
   3    -0.000000   -0.001446   -0.013999   -0.099666   -0.017229   -0.016906   -0.123502   -0.268875   -0.541624    0.000023
   4    -0.000000   -0.001446   -0.013999   -0.099664   -0.017229   -0.016906   -0.123502   -0.268875   -0.541621    0.000003
-------------------------------------------------------------------------------------------------------------------
 
  FINAL CASPT2 RESULT:
 
  Correlation energy /Case, /Symm, and sums:
 VJTU     -0.00000000 -0.00000000
 VJTIP    -0.00144647 -0.00144647
 VJTIM     0.00000000  0.00000000
 ATVX     -0.01399913 -0.01399913
 AIVX     -0.09966343 -0.09966343
 VJAIP    -0.01200420 -0.01200420
 VJAIM    -0.00522495 -0.00522495
 BVATP    -0.01598839 -0.01598839
 BVATM    -0.00091781 -0.00091781
 BJATP    -0.04571225 -0.04571225
 BJATM    -0.07778952 -0.07778952
 BJAIP    -0.18084953 -0.18084953
 BJAIM    -0.08802532 -0.08802532
 Summed:  -0.54162101 -0.54162101
 
      Reference energy:        -224.5230325592
      E2 (Non-variational):      -0.5416210084
      E2 (Variational):          -0.5416210353
      Total energy:            -225.0646535945
      Residual norm:              0.0000002780
      Reference weight:           0.85346
 
      Contributions to the CASPT2 correlation energy
      Active & Virtual Only:         -0.0309053378
      One Inactive Excited:          -0.2231651983
      Two Inactive Excited:          -0.2875504723
 
 
++ Denominators, etc.
----------------------------------------------------------------------------------------------------
 Report on small energy denominators, large coefficients, and large energy contributions.
CASE  SYMM ACTIVE-MIX  NON-ACTIVE INDICES          DENOMINATOR     RHS VALUE       COEFFICIENT     CONTRIBUTION
ATVX     1  Mu1.0006  Se1.016                       1.89025969      0.06630236     -0.03577071     -0.00237168
ATVX     1  Mu1.0005  Se1.021                       1.83706167      0.10132626     -0.05408191     -0.00547992
ATVX     1  Mu1.0006  Se1.024                       2.41968945     -0.06170173      0.02557070     -0.00157776
ATVX     1  Mu1.0005  Se1.026                       2.83480246     -0.07135266      0.02525616     -0.00180209
AIVX     1  Mu1.0005  In1.004 Se1.014               2.65889786     -0.08083700      0.03043479     -0.00246026
AIVX     1  Mu1.0003  In1.005 Se1.014               2.06217511     -0.06503135      0.03111036     -0.00202315
AIVX     1  Mu1.0004  In1.007 Se1.014               1.60084466     -0.06657200      0.04201798     -0.00279722
AIVX     1  Mu1.0002  In1.008 Se1.014               1.30964242      0.08662420     -0.06554176     -0.00567750
AIVX     1  Mu1.0003  In1.008 Se1.014               1.40132332      0.04447019     -0.03148475     -0.00140013
AIVX     1  Mu1.0002  In1.009 Se1.014               1.12303678     -0.06108039      0.05370439     -0.00328029
AIVX     1  Mu1.0003  In1.009 Se1.014               1.21471768     -0.04075439      0.03323798     -0.00135459
AIVX     1  Mu1.0004  In1.010 Se1.017               1.56480908     -0.05529359      0.03528785     -0.00195119
AIVX     1  Mu1.0002  In1.009 Se1.018               1.47158306     -0.05775699      0.03825003     -0.00220921
AIVX     1  Mu1.0003  In1.009 Se1.018               1.56326396     -0.04044534      0.02523074     -0.00102047
AIVX     1  Mu1.0004  In1.008 Se1.019               2.02385984      0.11691121     -0.05819744     -0.00680393
AIVX     1  Mu1.0005  In1.008 Se1.019               2.18644072      0.07372480     -0.03400079     -0.00250670
AIVX     1  Mu1.0002  In1.010 Se1.020               1.50119971     -0.07547355      0.04898117     -0.00369678
AIVX     1  Mu1.0003  In1.010 Se1.020               1.59288060     -0.05036504      0.03070146     -0.00154628
AIVX     1  Mu1.0004  In1.006 Se1.022               2.52831928     -0.06416826      0.02538035     -0.00162861
BJAIP    1  Se1.014 In1.006 Se1.019 In1.008         2.66316989      0.07525325     -0.02825701     -0.00212643
BJAIP    1  Se1.014 In1.007 Se1.019 In1.008         2.39758579     -0.06070933      0.02532100     -0.00153722
BJAIP    1  Se1.014 In1.008 Se1.014 In1.008         1.96061772      0.05999353     -0.03059930     -0.00183576
BJAIP    1  Se1.019 In1.008 Se1.019 In1.008         2.82060097      0.10533254     -0.03734398     -0.00393354
BJAIP    1  Se1.014 In1.009 Se1.014 In1.009         1.58740644      0.04158720     -0.02619821     -0.00108951
BJAIM    1  Se1.014 In1.009 Se1.019 In1.010         1.96556936      0.04956551     -0.02521686     -0.00124989
--
 
   (Skipping property calculation,
    use PROP keyword to activate)
--
 
  Total CASPT2 energies:
::    CASPT2 Root  1     Total energy:   -225.06465359
 
  A NEW JOBIPH FILE NAMED 'JOBMIX' IS PREPARED.
********************************************************************************
forrtl: warning (528): IEEE_UNDERFLOW is signaling
--- Stop Module: caspt2 at Fri Jan 24 16:53:06 2025 /rc=_RC_ALL_IS_WELL_ ---
*** files: xmldump
    saved to directory /home/grierjones/DDCASPT2/ozone/ANO-RCC-VDZP/ozone_148.75

>>> EXPORT i = B

>>> EXPORT j = P

>>> IF (-FILE GMJ_e2_${i}_${j}.csv)

>>> COPY /tmp/ozone_148.75/GMJ_RHS_B_P.csv /home/grierjones/DDCASPT2/ozone/ANO-RCC-VDZP/ozone_148.75/GMJ_RHS_B_P.csv

>>> COPY /tmp/ozone_148.75/GMJ_IVECW_B_P.csv /home/grierjones/DDCASPT2/ozone/ANO-RCC-VDZP/ozone_148.75/GMJ_IVECW_B_P.csv

>>> COPY /tmp/ozone_148.75/GMJ_IVECX_B_P.csv /home/grierjones/DDCASPT2/ozone/ANO-RCC-VDZP/ozone_148.75/GMJ_IVECX_B_P.csv

>>> COPY /tmp/ozone_148.75/GMJ_IVECC2_B_P.csv /home/grierjones/DDCASPT2/ozone/ANO-RCC-VDZP/ozone_148.75/GMJ_IVECC2_B_P.csv

>>> COPY /tmp/ozone_148.75/GMJ_e2_B_P.csv /home/grierjones/DDCASPT2/ozone/ANO-RCC-VDZP/ozone_148.75/GMJ_e2_B_P.csv

>>> END FOREACH

>>> EXPORT j = M

>>> IF (-FILE GMJ_e2_${i}_${j}.csv)
(Skipped)

>>> END FOREACH

>>> END FOREACH

>>> EXPORT i = E

>>> EXPORT j = P

>>> IF (-FILE GMJ_e2_${i}_${j}.csv)

>>> COPY /tmp/ozone_148.75/GMJ_RHS_E_P.csv /home/grierjones/DDCASPT2/ozone/ANO-RCC-VDZP/ozone_148.75/GMJ_RHS_E_P.csv

>>> COPY /tmp/ozone_148.75/GMJ_IVECW_E_P.csv /home/grierjones/DDCASPT2/ozone/ANO-RCC-VDZP/ozone_148.75/GMJ_IVECW_E_P.csv

>>> COPY /tmp/ozone_148.75/GMJ_IVECX_E_P.csv /home/grierjones/DDCASPT2/ozone/ANO-RCC-VDZP/ozone_148.75/GMJ_IVECX_E_P.csv

>>> COPY /tmp/ozone_148.75/GMJ_IVECC2_E_P.csv /home/grierjones/DDCASPT2/ozone/ANO-RCC-VDZP/ozone_148.75/GMJ_IVECC2_E_P.csv

>>> COPY /tmp/ozone_148.75/GMJ_e2_E_P.csv /home/grierjones/DDCASPT2/ozone/ANO-RCC-VDZP/ozone_148.75/GMJ_e2_E_P.csv

>>> END FOREACH

>>> EXPORT j = M

>>> IF (-FILE GMJ_e2_${i}_${j}.csv)

>>> COPY /tmp/ozone_148.75/GMJ_RHS_E_M.csv /home/grierjones/DDCASPT2/ozone/ANO-RCC-VDZP/ozone_148.75/GMJ_RHS_E_M.csv

>>> COPY /tmp/ozone_148.75/GMJ_IVECW_E_M.csv /home/grierjones/DDCASPT2/ozone/ANO-RCC-VDZP/ozone_148.75/GMJ_IVECW_E_M.csv

>>> COPY /tmp/ozone_148.75/GMJ_IVECX_E_M.csv /home/grierjones/DDCASPT2/ozone/ANO-RCC-VDZP/ozone_148.75/GMJ_IVECX_E_M.csv

>>> COPY /tmp/ozone_148.75/GMJ_IVECC2_E_M.csv /home/grierjones/DDCASPT2/ozone/ANO-RCC-VDZP/ozone_148.75/GMJ_IVECC2_E_M.csv

>>> COPY /tmp/ozone_148.75/GMJ_e2_E_M.csv /home/grierjones/DDCASPT2/ozone/ANO-RCC-VDZP/ozone_148.75/GMJ_e2_E_M.csv

>>> END FOREACH

>>> END FOREACH

>>> EXPORT i = F

>>> EXPORT j = P

>>> IF (-FILE GMJ_e2_${i}_${j}.csv)

>>> COPY /tmp/ozone_148.75/GMJ_RHS_F_P.csv /home/grierjones/DDCASPT2/ozone/ANO-RCC-VDZP/ozone_148.75/GMJ_RHS_F_P.csv

>>> COPY /tmp/ozone_148.75/GMJ_IVECW_F_P.csv /home/grierjones/DDCASPT2/ozone/ANO-RCC-VDZP/ozone_148.75/GMJ_IVECW_F_P.csv

>>> COPY /tmp/ozone_148.75/GMJ_IVECX_F_P.csv /home/grierjones/DDCASPT2/ozone/ANO-RCC-VDZP/ozone_148.75/GMJ_IVECX_F_P.csv

>>> COPY /tmp/ozone_148.75/GMJ_IVECC2_F_P.csv /home/grierjones/DDCASPT2/ozone/ANO-RCC-VDZP/ozone_148.75/GMJ_IVECC2_F_P.csv

>>> COPY /tmp/ozone_148.75/GMJ_e2_F_P.csv /home/grierjones/DDCASPT2/ozone/ANO-RCC-VDZP/ozone_148.75/GMJ_e2_F_P.csv

>>> END FOREACH

>>> EXPORT j = M

>>> IF (-FILE GMJ_e2_${i}_${j}.csv)

>>> COPY /tmp/ozone_148.75/GMJ_RHS_F_M.csv /home/grierjones/DDCASPT2/ozone/ANO-RCC-VDZP/ozone_148.75/GMJ_RHS_F_M.csv

>>> COPY /tmp/ozone_148.75/GMJ_IVECW_F_M.csv /home/grierjones/DDCASPT2/ozone/ANO-RCC-VDZP/ozone_148.75/GMJ_IVECW_F_M.csv

>>> COPY /tmp/ozone_148.75/GMJ_IVECX_F_M.csv /home/grierjones/DDCASPT2/ozone/ANO-RCC-VDZP/ozone_148.75/GMJ_IVECX_F_M.csv

>>> COPY /tmp/ozone_148.75/GMJ_IVECC2_F_M.csv /home/grierjones/DDCASPT2/ozone/ANO-RCC-VDZP/ozone_148.75/GMJ_IVECC2_F_M.csv

>>> COPY /tmp/ozone_148.75/GMJ_e2_F_M.csv /home/grierjones/DDCASPT2/ozone/ANO-RCC-VDZP/ozone_148.75/GMJ_e2_F_M.csv

>>> END FOREACH

>>> END FOREACH

>>> EXPORT i = G

>>> EXPORT j = P

>>> IF (-FILE GMJ_e2_${i}_${j}.csv)

>>> COPY /tmp/ozone_148.75/GMJ_RHS_G_P.csv /home/grierjones/DDCASPT2/ozone/ANO-RCC-VDZP/ozone_148.75/GMJ_RHS_G_P.csv

>>> COPY /tmp/ozone_148.75/GMJ_IVECW_G_P.csv /home/grierjones/DDCASPT2/ozone/ANO-RCC-VDZP/ozone_148.75/GMJ_IVECW_G_P.csv

>>> COPY /tmp/ozone_148.75/GMJ_IVECX_G_P.csv /home/grierjones/DDCASPT2/ozone/ANO-RCC-VDZP/ozone_148.75/GMJ_IVECX_G_P.csv

>>> COPY /tmp/ozone_148.75/GMJ_IVECC2_G_P.csv /home/grierjones/DDCASPT2/ozone/ANO-RCC-VDZP/ozone_148.75/GMJ_IVECC2_G_P.csv

>>> COPY /tmp/ozone_148.75/GMJ_e2_G_P.csv /home/grierjones/DDCASPT2/ozone/ANO-RCC-VDZP/ozone_148.75/GMJ_e2_G_P.csv

>>> END FOREACH

>>> EXPORT j = M

>>> IF (-FILE GMJ_e2_${i}_${j}.csv)

>>> COPY /tmp/ozone_148.75/GMJ_RHS_G_M.csv /home/grierjones/DDCASPT2/ozone/ANO-RCC-VDZP/ozone_148.75/GMJ_RHS_G_M.csv

>>> COPY /tmp/ozone_148.75/GMJ_IVECW_G_M.csv /home/grierjones/DDCASPT2/ozone/ANO-RCC-VDZP/ozone_148.75/GMJ_IVECW_G_M.csv

>>> COPY /tmp/ozone_148.75/GMJ_IVECX_G_M.csv /home/grierjones/DDCASPT2/ozone/ANO-RCC-VDZP/ozone_148.75/GMJ_IVECX_G_M.csv

>>> COPY /tmp/ozone_148.75/GMJ_IVECC2_G_M.csv /home/grierjones/DDCASPT2/ozone/ANO-RCC-VDZP/ozone_148.75/GMJ_IVECC2_G_M.csv

>>> COPY /tmp/ozone_148.75/GMJ_e2_G_M.csv /home/grierjones/DDCASPT2/ozone/ANO-RCC-VDZP/ozone_148.75/GMJ_e2_G_M.csv

>>> END FOREACH

>>> END FOREACH

>>> EXPORT i = H

>>> EXPORT j = P

>>> IF (-FILE GMJ_e2_${i}_${j}.csv)

>>> COPY /tmp/ozone_148.75/GMJ_RHS_H_P.csv /home/grierjones/DDCASPT2/ozone/ANO-RCC-VDZP/ozone_148.75/GMJ_RHS_H_P.csv

>>> COPY /tmp/ozone_148.75/GMJ_IVECW_H_P.csv /home/grierjones/DDCASPT2/ozone/ANO-RCC-VDZP/ozone_148.75/GMJ_IVECW_H_P.csv

>>> COPY /tmp/ozone_148.75/GMJ_IVECX_H_P.csv /home/grierjones/DDCASPT2/ozone/ANO-RCC-VDZP/ozone_148.75/GMJ_IVECX_H_P.csv

>>> COPY /tmp/ozone_148.75/GMJ_IVECC2_H_P.csv /home/grierjones/DDCASPT2/ozone/ANO-RCC-VDZP/ozone_148.75/GMJ_IVECC2_H_P.csv

>>> COPY /tmp/ozone_148.75/GMJ_e2_H_P.csv /home/grierjones/DDCASPT2/ozone/ANO-RCC-VDZP/ozone_148.75/GMJ_e2_H_P.csv

>>> END FOREACH

>>> EXPORT j = M

>>> IF (-FILE GMJ_e2_${i}_${j}.csv)

>>> COPY /tmp/ozone_148.75/GMJ_RHS_H_M.csv /home/grierjones/DDCASPT2/ozone/ANO-RCC-VDZP/ozone_148.75/GMJ_RHS_H_M.csv

>>> COPY /tmp/ozone_148.75/GMJ_IVECW_H_M.csv /home/grierjones/DDCASPT2/ozone/ANO-RCC-VDZP/ozone_148.75/GMJ_IVECW_H_M.csv

>>> COPY /tmp/ozone_148.75/GMJ_IVECX_H_M.csv /home/grierjones/DDCASPT2/ozone/ANO-RCC-VDZP/ozone_148.75/GMJ_IVECX_H_M.csv

>>> COPY /tmp/ozone_148.75/GMJ_IVECC2_H_M.csv /home/grierjones/DDCASPT2/ozone/ANO-RCC-VDZP/ozone_148.75/GMJ_IVECC2_H_M.csv

>>> COPY /tmp/ozone_148.75/GMJ_e2_H_M.csv /home/grierjones/DDCASPT2/ozone/ANO-RCC-VDZP/ozone_148.75/GMJ_e2_H_M.csv

>>> END FOREACH

>>> END FOREACH

>>> EXPORT i = A

>>> IF (-FILE GMJ_e2_$i.csv)

>>> COPY /tmp/ozone_148.75/GMJ_RHS_A.csv /home/grierjones/DDCASPT2/ozone/ANO-RCC-VDZP/ozone_148.75/GMJ_RHS_A.csv

>>> COPY /tmp/ozone_148.75/GMJ_IVECW_A.csv /home/grierjones/DDCASPT2/ozone/ANO-RCC-VDZP/ozone_148.75/GMJ_IVECW_A.csv

>>> COPY /tmp/ozone_148.75/GMJ_IVECX_A.csv /home/grierjones/DDCASPT2/ozone/ANO-RCC-VDZP/ozone_148.75/GMJ_IVECX_A.csv

>>> COPY /tmp/ozone_148.75/GMJ_IVECC2_A.csv /home/grierjones/DDCASPT2/ozone/ANO-RCC-VDZP/ozone_148.75/GMJ_IVECC2_A.csv

>>> COPY /tmp/ozone_148.75/GMJ_e2_A.csv /home/grierjones/DDCASPT2/ozone/ANO-RCC-VDZP/ozone_148.75/GMJ_e2_A.csv

>>> END FOREACH

>>> EXPORT i = C

>>> IF (-FILE GMJ_e2_$i.csv)

>>> COPY /tmp/ozone_148.75/GMJ_RHS_C.csv /home/grierjones/DDCASPT2/ozone/ANO-RCC-VDZP/ozone_148.75/GMJ_RHS_C.csv

>>> COPY /tmp/ozone_148.75/GMJ_IVECW_C.csv /home/grierjones/DDCASPT2/ozone/ANO-RCC-VDZP/ozone_148.75/GMJ_IVECW_C.csv

>>> COPY /tmp/ozone_148.75/GMJ_IVECX_C.csv /home/grierjones/DDCASPT2/ozone/ANO-RCC-VDZP/ozone_148.75/GMJ_IVECX_C.csv

>>> COPY /tmp/ozone_148.75/GMJ_IVECC2_C.csv /home/grierjones/DDCASPT2/ozone/ANO-RCC-VDZP/ozone_148.75/GMJ_IVECC2_C.csv

>>> COPY /tmp/ozone_148.75/GMJ_e2_C.csv /home/grierjones/DDCASPT2/ozone/ANO-RCC-VDZP/ozone_148.75/GMJ_e2_C.csv

>>> END FOREACH

>>> EXPORT i = D

>>> IF (-FILE GMJ_e2_$i.csv)

>>> COPY /tmp/ozone_148.75/GMJ_RHS_D.csv /home/grierjones/DDCASPT2/ozone/ANO-RCC-VDZP/ozone_148.75/GMJ_RHS_D.csv

>>> COPY /tmp/ozone_148.75/GMJ_IVECW_D.csv /home/grierjones/DDCASPT2/ozone/ANO-RCC-VDZP/ozone_148.75/GMJ_IVECW_D.csv

>>> COPY /tmp/ozone_148.75/GMJ_IVECX_D.csv /home/grierjones/DDCASPT2/ozone/ANO-RCC-VDZP/ozone_148.75/GMJ_IVECX_D.csv

>>> COPY /tmp/ozone_148.75/GMJ_IVECC2_D.csv /home/grierjones/DDCASPT2/ozone/ANO-RCC-VDZP/ozone_148.75/GMJ_IVECC2_D.csv

>>> COPY /tmp/ozone_148.75/GMJ_e2_D.csv /home/grierjones/DDCASPT2/ozone/ANO-RCC-VDZP/ozone_148.75/GMJ_e2_D.csv

>>> END FOREACH

.########################.
.# Non-zero return code #.
.########################.

    Timing: Wall=3.52 User=2.64 System=0.87
********************************************
*** WorkDir at /tmp/ozone_148.75 cleaned ***
********************************************
