[Molden Format]
[N_Atoms]
                     2
[Atoms] (AU)
N1          1      7           0.00000000      0.00000000      0.00000000
N2          2      7           0.00000000      0.00000000      2.07869874
[Charge] (Mulliken)
 -4.218847493575595E-013
  4.165556788393587E-013
[GTO] (AU)
   1
   s  14
  7.476171500E+04  1.182599996E-04
  1.112365400E+04  5.172899983E-04
  2.512685700E+03  2.266659992E-03
  7.037772900E+02  9.145289970E-03
  2.254787900E+02  3.239342989E-02
  7.961581000E+01  9.770792967E-02
  3.023728300E+01  2.317036792E-01
  1.226362200E+01  3.768898887E-01
  5.265086000E+00  3.177420689E-01
  2.333471000E+00  8.211308973E-02
  9.018560000E-01  3.312089989E-03
  3.583360000E-01  3.720819988E-03
  1.410930000E-01  3.165419989E-03
  4.938300000E-02  4.595799985E-04
   s  14
  7.476171500E+04 -2.707000010E-05
  1.112365400E+04 -1.183700004E-04
  2.512685700E+03 -5.203800020E-04
  7.037772900E+02 -2.102930008E-03
  2.254787900E+02 -7.568200028E-03
  7.961581000E+01 -2.346767009E-02
  3.023728300E+01 -6.042901023E-02
  1.226362200E+01 -1.170549104E-01
  5.265086000E+00 -1.555321506E-01
  2.333471000E+00 -2.468935009E-02
  9.018560000E-01  3.625054514E-01
  3.583360000E-01  5.550845021E-01
  1.410930000E-01  2.148376908E-01
  4.938300000E-02  8.983850034E-03
   p   9
  1.266665700E+02  1.233630000E-03
  2.983738900E+01  9.493409996E-03
  9.394038000E+00  4.293961998E-02
  3.405104000E+00  1.362925399E-01
  1.350000000E+00  2.921362499E-01
  5.576960000E-01  3.887887598E-01
  2.324490000E-01  2.946801399E-01
  9.426400000E-02  8.012875997E-02
  3.299200000E-02  5.405199998E-04
 
   2
   s  14
  7.476171500E+04  1.182599996E-04
  1.112365400E+04  5.172899983E-04
  2.512685700E+03  2.266659992E-03
  7.037772900E+02  9.145289970E-03
  2.254787900E+02  3.239342989E-02
  7.961581000E+01  9.770792967E-02
  3.023728300E+01  2.317036792E-01
  1.226362200E+01  3.768898887E-01
  5.265086000E+00  3.177420689E-01
  2.333471000E+00  8.211308973E-02
  9.018560000E-01  3.312089989E-03
  3.583360000E-01  3.720819988E-03
  1.410930000E-01  3.165419989E-03
  4.938300000E-02  4.595799985E-04
   s  14
  7.476171500E+04 -2.707000010E-05
  1.112365400E+04 -1.183700004E-04
  2.512685700E+03 -5.203800020E-04
  7.037772900E+02 -2.102930008E-03
  2.254787900E+02 -7.568200028E-03
  7.961581000E+01 -2.346767009E-02
  3.023728300E+01 -6.042901023E-02
  1.226362200E+01 -1.170549104E-01
  5.265086000E+00 -1.555321506E-01
  2.333471000E+00 -2.468935009E-02
  9.018560000E-01  3.625054514E-01
  3.583360000E-01  5.550845021E-01
  1.410930000E-01  2.148376908E-01
  4.938300000E-02  8.983850034E-03
   p   9
  1.266665700E+02  1.233630000E-03
  2.983738900E+01  9.493409996E-03
  9.394038000E+00  4.293961998E-02
  3.405104000E+00  1.362925399E-01
  1.350000000E+00  2.921362499E-01
  5.576960000E-01  3.887887598E-01
  2.324490000E-01  2.946801399E-01
  9.426400000E-02  8.012875997E-02
  3.299200000E-02  5.405199998E-04
 
[MO]
Sym=     1a  
Ene=   -15.8120
Spin= Alpha
Occup=    2.00000
   1         0.70670102
   2        -0.00463976
   3        -0.00000000
   4         0.00000000
   5         0.00237270
   6         0.70670102
   7        -0.00463976
   8        -0.00000000
   9         0.00000000
  10        -0.00237270
Sym=     2a  
Ene=   -15.8050
Spin= Alpha
Occup=    2.00000
   1        -0.70742766
   2         0.01238728
   3        -0.00000000
   4         0.00000000
   5        -0.00793801
   6         0.70742766
   7        -0.01238728
   8        -0.00000000
   9         0.00000000
  10        -0.00793801
Sym=     3a  
Ene=    -1.5364
Spin= Alpha
Occup=    2.00000
   1         0.05047334
   2        -0.45684932
   3        -0.00000000
   4         0.00000000
   5        -0.26669507
   6         0.05047334
   7        -0.45684932
   8        -0.00000000
   9         0.00000000
  10         0.26669507
Sym=     4a  
Ene=    -0.6654
Spin= Alpha
Occup=    2.00000
   1         0.00000000
   2         0.00000000
   3         0.61281369
   4         0.03995837
   5        -0.00000000
   6         0.00000000
   7         0.00000000
   8         0.61281369
   9         0.03995837
  10         0.00000000
Sym=     5a  
Ene=    -0.6650
Spin= Alpha
Occup=    2.00000
   1         0.00000000
   2         0.00000000
   3        -0.03995837
   4         0.61281369
   5        -0.00000000
   6         0.00000000
   7         0.00000000
   8        -0.03995837
   9         0.61281369
  10         0.00000000
Sym=     6a  
Ene=    -0.6346
Spin= Alpha
Occup=    2.00000
   1         0.04091986
   2         0.42235434
   3        -0.00000000
   4        -0.00000000
   5        -0.62385135
   6         0.04091986
   7         0.42235434
   8        -0.00000000
   9        -0.00000000
  10         0.62385135
Sym=     7a  
Ene=    -0.8069
Spin= Alpha
Occup=    1.99001
   1        -0.03061321
   2        -0.70972144
   3         0.00000000
   4        -0.00000000
   5         0.26789948
   6         0.03061321
   7         0.70972144
   8        -0.00000000
   9         0.00000000
  10         0.26789948
Sym=     8a  
Ene=    -0.0000
Spin= Alpha
Occup=    0.00999
   1        -0.00000000
   2        -0.00000000
   3        -0.85933397
   4        -0.05603267
   5         0.00000000
   6         0.00000000
   7         0.00000000
   8         0.85933397
   9         0.05603267
  10         0.00000000
Sym=     9a  
Ene=     0.1629
Spin= Alpha
Occup=    0.00000
   1         0.00000000
   2         0.00000000
   3         0.05603267
   4        -0.85933397
   5         0.00000000
   6        -0.00000000
   7        -0.00000000
   8        -0.05603267
   9         0.85933397
  10         0.00000000
Sym=    10a  
Ene=     0.9827
Spin= Alpha
Occup=    0.00000
   1         0.18435711
   2         1.19853529
   3        -0.00000000
   4         0.00000000
   5         1.14324920
   6        -0.18435711
   7        -1.19853529
   8         0.00000000
   9        -0.00000000
  10         1.14324920
