[Molden Format]
[N_Atoms]
                     2
[Atoms] (AU)
N1          1      7           0.00000000      0.00000000      0.00000000
N2          2      7           0.00000000      0.00000000      2.07869874
[Charge] (Mulliken)
 -2.717825964282383E-013
  2.620126338115369E-013
[GTO] (AU)
   1
   s  14
  7.476171500E+04  1.182599996E-04
  1.112365400E+04  5.172899983E-04
  2.512685700E+03  2.266659992E-03
  7.037772900E+02  9.145289970E-03
  2.254787900E+02  3.239342989E-02
  7.961581000E+01  9.770792967E-02
  3.023728300E+01  2.317036792E-01
  1.226362200E+01  3.768898887E-01
  5.265086000E+00  3.177420689E-01
  2.333471000E+00  8.211308973E-02
  9.018560000E-01  3.312089989E-03
  3.583360000E-01  3.720819988E-03
  1.410930000E-01  3.165419989E-03
  4.938300000E-02  4.595799985E-04
   s  14
  7.476171500E+04 -2.707000010E-05
  1.112365400E+04 -1.183700004E-04
  2.512685700E+03 -5.203800020E-04
  7.037772900E+02 -2.102930008E-03
  2.254787900E+02 -7.568200028E-03
  7.961581000E+01 -2.346767009E-02
  3.023728300E+01 -6.042901023E-02
  1.226362200E+01 -1.170549104E-01
  5.265086000E+00 -1.555321506E-01
  2.333471000E+00 -2.468935009E-02
  9.018560000E-01  3.625054514E-01
  3.583360000E-01  5.550845021E-01
  1.410930000E-01  2.148376908E-01
  4.938300000E-02  8.983850034E-03
   p   9
  1.266665700E+02  1.233630000E-03
  2.983738900E+01  9.493409996E-03
  9.394038000E+00  4.293961998E-02
  3.405104000E+00  1.362925399E-01
  1.350000000E+00  2.921362499E-01
  5.576960000E-01  3.887887598E-01
  2.324490000E-01  2.946801399E-01
  9.426400000E-02  8.012875997E-02
  3.299200000E-02  5.405199998E-04
 
   2
   s  14
  7.476171500E+04  1.182599996E-04
  1.112365400E+04  5.172899983E-04
  2.512685700E+03  2.266659992E-03
  7.037772900E+02  9.145289970E-03
  2.254787900E+02  3.239342989E-02
  7.961581000E+01  9.770792967E-02
  3.023728300E+01  2.317036792E-01
  1.226362200E+01  3.768898887E-01
  5.265086000E+00  3.177420689E-01
  2.333471000E+00  8.211308973E-02
  9.018560000E-01  3.312089989E-03
  3.583360000E-01  3.720819988E-03
  1.410930000E-01  3.165419989E-03
  4.938300000E-02  4.595799985E-04
   s  14
  7.476171500E+04 -2.707000010E-05
  1.112365400E+04 -1.183700004E-04
  2.512685700E+03 -5.203800020E-04
  7.037772900E+02 -2.102930008E-03
  2.254787900E+02 -7.568200028E-03
  7.961581000E+01 -2.346767009E-02
  3.023728300E+01 -6.042901023E-02
  1.226362200E+01 -1.170549104E-01
  5.265086000E+00 -1.555321506E-01
  2.333471000E+00 -2.468935009E-02
  9.018560000E-01  3.625054514E-01
  3.583360000E-01  5.550845021E-01
  1.410930000E-01  2.148376908E-01
  4.938300000E-02  8.983850034E-03
   p   9
  1.266665700E+02  1.233630000E-03
  2.983738900E+01  9.493409996E-03
  9.394038000E+00  4.293961998E-02
  3.405104000E+00  1.362925399E-01
  1.350000000E+00  2.921362499E-01
  5.576960000E-01  3.887887598E-01
  2.324490000E-01  2.946801399E-01
  9.426400000E-02  8.012875997E-02
  3.299200000E-02  5.405199998E-04
 
[MO]
Sym=     1a  
Ene=   -15.8140
Spin= Alpha
Occup=    1.00000
   1         0.70670045
   2        -0.00464357
   3        -0.00000000
   4         0.00000000
   5         0.00238029
   6         0.70670045
   7        -0.00464357
   8         0.00000000
   9         0.00000000
  10        -0.00238029
Sym=     1a  
Ene=   -15.8140
Spin= Beta
Occup=    1.00000
   1         0.70670045
   2        -0.00464357
   3        -0.00000000
   4         0.00000000
   5         0.00238029
   6         0.70670045
   7        -0.00464357
   8         0.00000000
   9         0.00000000
  10        -0.00238029
Sym=     2a  
Ene=   -15.8100
Spin= Alpha
Occup=    1.00000
   1        -0.70783588
   2         0.00074031
   3        -0.00000000
   4         0.00000000
   5        -0.00355313
   6         0.70783588
   7        -0.00074031
   8         0.00000000
   9        -0.00000000
  10        -0.00355313
Sym=     2a  
Ene=   -15.8100
Spin= Beta
Occup=    1.00000
   1        -0.70783588
   2         0.00074031
   3        -0.00000000
   4         0.00000000
   5        -0.00355313
   6         0.70783588
   7        -0.00074031
   8         0.00000000
   9        -0.00000000
  10        -0.00355313
Sym=     3a  
Ene=    -1.5377
Spin= Alpha
Occup=    1.00000
   1        -0.05048268
   2         0.45676809
   3         0.00000000
   4        -0.00000000
   5         0.26681504
   6        -0.05048268
   7         0.45676809
   8         0.00000000
   9        -0.00000000
  10        -0.26681504
Sym=     3a  
Ene=    -1.5377
Spin= Beta
Occup=    1.00000
   1        -0.05048268
   2         0.45676809
   3         0.00000000
   4        -0.00000000
   5         0.26681504
   6        -0.05048268
   7         0.45676809
   8         0.00000000
   9        -0.00000000
  10        -0.26681504
Sym=     4a  
Ene=    -0.8051
Spin= Alpha
Occup=    1.00000
   1        -0.01866821
   2        -0.70760355
   3         0.00000000
   4        -0.00000000
   5         0.27011492
   6         0.01866821
   7         0.70760355
   8         0.00000000
   9        -0.00000000
  10         0.27011492
Sym=     4a  
Ene=    -0.8051
Spin= Beta
Occup=    1.00000
   1        -0.01866821
   2        -0.70760355
   3         0.00000000
   4        -0.00000000
   5         0.27011492
   6         0.01866821
   7         0.70760355
   8         0.00000000
   9        -0.00000000
  10         0.27011492
Sym=     5a  
Ene=    -0.6658
Spin= Alpha
Occup=    1.00000
   1         0.00000000
   2        -0.00000000
   3        -0.22487288
   4         0.57146258
   5        -0.00000000
   6         0.00000000
   7         0.00000000
   8        -0.22487288
   9         0.57146258
  10         0.00000000
Sym=     5a  
Ene=    -0.6658
Spin= Beta
Occup=    1.00000
   1         0.00000000
   2        -0.00000000
   3        -0.22487288
   4         0.57146258
   5        -0.00000000
   6         0.00000000
   7         0.00000000
   8        -0.22487288
   9         0.57146258
  10         0.00000000
Sym=     6a  
Ene=    -0.6658
Spin= Alpha
Occup=    1.00000
   1         0.00000000
   2         0.00000000
   3         0.57146258
   4         0.22487288
   5        -0.00000000
   6         0.00000000
   7         0.00000000
   8         0.57146258
   9         0.22487288
  10         0.00000000
Sym=     6a  
Ene=    -0.6658
Spin= Beta
Occup=    1.00000
   1         0.00000000
   2         0.00000000
   3         0.57146258
   4         0.22487288
   5        -0.00000000
   6         0.00000000
   7         0.00000000
   8         0.57146258
   9         0.22487288
  10         0.00000000
Sym=     7a  
Ene=    -0.6358
Spin= Alpha
Occup=    1.00000
   1         0.04091811
   2         0.42244214
   3        -0.00000000
   4        -0.00000000
   5        -0.62380002
   6         0.04091811
   7         0.42244214
   8        -0.00000000
   9        -0.00000000
  10         0.62380002
Sym=     7a  
Ene=    -0.6358
Spin= Beta
Occup=    1.00000
   1         0.04091811
   2         0.42244214
   3        -0.00000000
   4        -0.00000000
   5        -0.62380002
   6         0.04091811
   7         0.42244214
   8        -0.00000000
   9        -0.00000000
  10         0.62380002
Sym=     8a  
Ene=     0.1623
Spin= Alpha
Occup=    0.00000
   1         0.00000000
   2         0.00000000
   3         0.29422850
   4        -0.80933561
   5        -0.00000000
   6         0.00000000
   7        -0.00000000
   8        -0.29422850
   9         0.80933561
  10         0.00000000
Sym=     8a  
Ene=     0.1623
Spin= Beta
Occup=    0.00000
   1         0.00000000
   2         0.00000000
   3         0.29422850
   4        -0.80933561
   5        -0.00000000
   6         0.00000000
   7        -0.00000000
   8        -0.29422850
   9         0.80933561
  10         0.00000000
Sym=     9a  
Ene=     0.1623
Spin= Alpha
Occup=    0.00000
   1         0.00000000
   2         0.00000000
   3        -0.80933561
   4        -0.29422850
   5         0.00000000
   6        -0.00000000
   7        -0.00000000
   8         0.80933561
   9         0.29422850
  10         0.00000000
Sym=     9a  
Ene=     0.1623
Spin= Beta
Occup=    0.00000
   1         0.00000000
   2         0.00000000
   3        -0.80933561
   4        -0.29422850
   5         0.00000000
   6        -0.00000000
   7        -0.00000000
   8         0.80933561
   9         0.29422850
  10         0.00000000
Sym=    10a  
Ene=     0.9817
Spin= Alpha
Occup=    0.00000
   1         0.18438677
   2         1.19985060
   3         0.00000000
   4         0.00000000
   5         1.14274984
   6        -0.18438677
   7        -1.19985060
   8        -0.00000000
   9        -0.00000000
  10         1.14274984
Sym=    10a  
Ene=     0.9817
Spin= Beta
Occup=    0.00000
   1         0.18438677
   2         1.19985060
   3         0.00000000
   4         0.00000000
   5         1.14274984
   6        -0.18438677
   7        -1.19985060
   8        -0.00000000
   9        -0.00000000
  10         1.14274984
