[Molden Format]
[N_Atoms]
                     2
[Atoms] (AU)
N1          1      7           0.00000000      0.00000000      0.00000000
N2          2      7           0.00000000      0.00000000      2.07869874
[Charge] (Mulliken)
  0.999999999999776     
   1.00000000000022     
[GTO] (AU)
   1
   s  14
  7.476171500E+04  1.182599996E-04
  1.112365400E+04  5.172899983E-04
  2.512685700E+03  2.266659992E-03
  7.037772900E+02  9.145289970E-03
  2.254787900E+02  3.239342989E-02
  7.961581000E+01  9.770792967E-02
  3.023728300E+01  2.317036792E-01
  1.226362200E+01  3.768898887E-01
  5.265086000E+00  3.177420689E-01
  2.333471000E+00  8.211308973E-02
  9.018560000E-01  3.312089989E-03
  3.583360000E-01  3.720819988E-03
  1.410930000E-01  3.165419989E-03
  4.938300000E-02  4.595799985E-04
   s  14
  7.476171500E+04 -2.707000010E-05
  1.112365400E+04 -1.183700004E-04
  2.512685700E+03 -5.203800020E-04
  7.037772900E+02 -2.102930008E-03
  2.254787900E+02 -7.568200028E-03
  7.961581000E+01 -2.346767009E-02
  3.023728300E+01 -6.042901023E-02
  1.226362200E+01 -1.170549104E-01
  5.265086000E+00 -1.555321506E-01
  2.333471000E+00 -2.468935009E-02
  9.018560000E-01  3.625054514E-01
  3.583360000E-01  5.550845021E-01
  1.410930000E-01  2.148376908E-01
  4.938300000E-02  8.983850034E-03
   p   9
  1.266665700E+02  1.233630000E-03
  2.983738900E+01  9.493409996E-03
  9.394038000E+00  4.293961998E-02
  3.405104000E+00  1.362925399E-01
  1.350000000E+00  2.921362499E-01
  5.576960000E-01  3.887887598E-01
  2.324490000E-01  2.946801399E-01
  9.426400000E-02  8.012875997E-02
  3.299200000E-02  5.405199998E-04
 
   2
   s  14
  7.476171500E+04  1.182599996E-04
  1.112365400E+04  5.172899983E-04
  2.512685700E+03  2.266659992E-03
  7.037772900E+02  9.145289970E-03
  2.254787900E+02  3.239342989E-02
  7.961581000E+01  9.770792967E-02
  3.023728300E+01  2.317036792E-01
  1.226362200E+01  3.768898887E-01
  5.265086000E+00  3.177420689E-01
  2.333471000E+00  8.211308973E-02
  9.018560000E-01  3.312089989E-03
  3.583360000E-01  3.720819988E-03
  1.410930000E-01  3.165419989E-03
  4.938300000E-02  4.595799985E-04
   s  14
  7.476171500E+04 -2.707000010E-05
  1.112365400E+04 -1.183700004E-04
  2.512685700E+03 -5.203800020E-04
  7.037772900E+02 -2.102930008E-03
  2.254787900E+02 -7.568200028E-03
  7.961581000E+01 -2.346767009E-02
  3.023728300E+01 -6.042901023E-02
  1.226362200E+01 -1.170549104E-01
  5.265086000E+00 -1.555321506E-01
  2.333471000E+00 -2.468935009E-02
  9.018560000E-01  3.625054514E-01
  3.583360000E-01  5.550845021E-01
  1.410930000E-01  2.148376908E-01
  4.938300000E-02  8.983850034E-03
   p   9
  1.266665700E+02  1.233630000E-03
  2.983738900E+01  9.493409996E-03
  9.394038000E+00  4.293961998E-02
  3.405104000E+00  1.362925399E-01
  1.350000000E+00  2.921362499E-01
  5.576960000E-01  3.887887598E-01
  2.324490000E-01  2.946801399E-01
  9.426400000E-02  8.012875997E-02
  3.299200000E-02  5.405199998E-04
 
[MO]
Sym=     1a  
Ene=   -17.1540
Spin= Alpha
Occup=    2.00000
   1         0.70682143
   2        -0.00543587
   3        -0.00000000
   4         0.00000000
   5         0.00156929
   6         0.70682143
   7        -0.00543587
   8        -0.00000000
   9         0.00000000
  10        -0.00156929
Sym=     2a  
Ene=   -17.1510
Spin= Alpha
Occup=    2.00000
   1        -0.70742423
   2         0.00463413
   3        -0.00000000
   4         0.00000000
   5        -0.00183308
   6         0.70742423
   7        -0.00463413
   8        -0.00000000
   9         0.00000000
  10        -0.00183308
Sym=     3a  
Ene=    -2.5315
Spin= Alpha
Occup=    2.00000
   1         0.05126744
   2        -0.43151352
   3        -0.00000000
   4         0.00000000
   5        -0.30251429
   6         0.05126744
   7        -0.43151352
   8        -0.00000000
   9         0.00000000
  10         0.30251429
Sym=     4a  
Ene=    -1.6209
Spin= Alpha
Occup=    2.00000
   1        -0.00000000
   2         0.00000000
   3        -0.22611641
   4         0.57097169
   5         0.00000000
   6        -0.00000000
   7        -0.00000000
   8        -0.22611641
   9         0.57097169
  10        -0.00000000
Sym=     5a  
Ene=    -1.6209
Spin= Alpha
Occup=    2.00000
   1         0.00000000
   2         0.00000000
   3         0.57097169
   4         0.22611641
   5        -0.00000000
   6         0.00000000
   7         0.00000000
   8         0.57097169
   9         0.22611641
  10         0.00000000
Sym=     6a  
Ene=    -1.2768
Spin= Alpha
Occup=    0.44804
   1         0.03772837
   2         0.44819923
   3        -0.00000000
   4        -0.00000000
   5        -0.60729320
   6         0.03772837
   7         0.44819923
   8        -0.00000000
   9        -0.00000000
  10         0.60729320
Sym=     7a  
Ene=    -0.0157
Spin= Alpha
Occup=    1.55196
   1        -0.02365219
   2        -0.73005497
   3         0.00000000
   4        -0.00000000
   5         0.24855348
   6         0.02365219
   7         0.73005497
   8        -0.00000000
   9         0.00000000
  10         0.24855348
Sym=     8a  
Ene=    -0.8566
Spin= Alpha
Occup=    0.00000
   1         0.00000000
   2         0.00000000
   3         0.27802024
   4        -0.81504557
   5        -0.00000000
   6        -0.00000000
   7        -0.00000000
   8        -0.27802024
   9         0.81504557
  10         0.00000000
Sym=     9a  
Ene=    -0.8566
Spin= Alpha
Occup=    0.00000
   1         0.00000000
   2         0.00000000
   3        -0.81504557
   4        -0.27802024
   5         0.00000000
   6        -0.00000000
   7        -0.00000000
   8         0.81504557
   9         0.27802024
  10         0.00000000
Sym=    10a  
Ene=    -0.0874
Spin= Alpha
Occup=    0.00000
   1         0.18539188
   2         1.18631491
   3         0.00000000
   4         0.00000000
   5         1.14763657
   6        -0.18539188
   7        -1.18631491
   8        -0.00000000
   9        -0.00000000
  10         1.14763657
