[Molden Format]
[N_Atoms]
                     2
[Atoms] (AU)
C1          1      6           0.00000000      0.00000000      0.00000000
N2          2      7           0.00000000      0.00000000      1.13383567
[Charge] (Mulliken)
  0.405965136084734     
 -0.405965136084744     
[GTO] (AU)
   1
   s  14
  5.055750100E+04  1.128874000E-04
  7.524785600E+03  5.295373000E-04
  1.694327600E+03  2.450038300E-03
  4.728227900E+02  1.005398470E-02
  1.517107500E+02  3.545398060E-02
  5.391874600E+01  1.044071086E-01
  2.065931100E+01  2.412894918E-01
  8.383976000E+00  3.834225483E-01
  3.577015000E+00  3.078514393E-01
  1.547118000E+00  6.872442990E-02
  6.130130000E-01  2.224445000E-04
  2.460680000E-01  1.976748900E-03
  9.908700000E-02  2.057859400E-03
  3.468000000E-02  4.182020000E-04
   s  14
  5.055750100E+04 -2.507420000E-05
  7.524785600E+03 -1.175945000E-04
  1.694327600E+03 -5.456275000E-04
  4.728227900E+02 -2.245077100E-03
  1.517107500E+02 -8.043471800E-03
  5.391874600E+01 -2.442588710E-02
  2.065931100E+01 -6.136791180E-02
  8.383976000E+00 -1.177767835E-01
  3.577015000E+00 -1.550487783E-01
  1.547118000E+00 -1.933316860E-02
  6.130130000E-01  3.996930678E-01
  2.460680000E-01  5.589420949E-01
  9.908700000E-02  1.711195023E-01
  3.468000000E-02  7.456244600E-03
   p   9
  8.333315500E+01  1.344656000E-03
  1.955761100E+01  1.023555500E-02
  6.080365000E+00  4.520067100E-02
  2.179317000E+00  1.410756198E-01
  8.651500000E-01  3.047388085E-01
  3.619440000E-01  3.995281011E-01
  1.547400000E-01  2.719163432E-01
  6.542900000E-02  5.857669330E-02
  2.290000000E-02 -1.263813000E-04
 
   2
   s  14
  7.476171500E+04  1.182599996E-04
  1.112365400E+04  5.172899983E-04
  2.512685700E+03  2.266659992E-03
  7.037772900E+02  9.145289970E-03
  2.254787900E+02  3.239342989E-02
  7.961581000E+01  9.770792967E-02
  3.023728300E+01  2.317036792E-01
  1.226362200E+01  3.768898887E-01
  5.265086000E+00  3.177420689E-01
  2.333471000E+00  8.211308973E-02
  9.018560000E-01  3.312089989E-03
  3.583360000E-01  3.720819988E-03
  1.410930000E-01  3.165419989E-03
  4.938300000E-02  4.595799985E-04
   s  14
  7.476171500E+04 -2.707000010E-05
  1.112365400E+04 -1.183700004E-04
  2.512685700E+03 -5.203800020E-04
  7.037772900E+02 -2.102930008E-03
  2.254787900E+02 -7.568200028E-03
  7.961581000E+01 -2.346767009E-02
  3.023728300E+01 -6.042901023E-02
  1.226362200E+01 -1.170549104E-01
  5.265086000E+00 -1.555321506E-01
  2.333471000E+00 -2.468935009E-02
  9.018560000E-01  3.625054514E-01
  3.583360000E-01  5.550845021E-01
  1.410930000E-01  2.148376908E-01
  4.938300000E-02  8.983850034E-03
   p   9
  1.266665700E+02  1.233630000E-03
  2.983738900E+01  9.493409996E-03
  9.394038000E+00  4.293961998E-02
  3.405104000E+00  1.362925399E-01
  1.350000000E+00  2.921362499E-01
  5.576960000E-01  3.887887598E-01
  2.324490000E-01  2.946801399E-01
  9.426400000E-02  8.012875997E-02
  3.299200000E-02  5.405199998E-04
 
[MO]
Sym=     1a  
Ene=   -16.4710
Spin= Alpha
Occup=    1.00000
   1         0.01581087
   2        -0.02334943
   3         0.00000000
   4        -0.00000000
   5        -0.00173115
   6         1.00340205
   7         0.01616498
   8         0.00000000
   9         0.00000000
  10        -0.01965342
Sym=     1a  
Ene=   -16.4710
Spin= Beta
Occup=    1.00000
   1         0.01581087
   2        -0.02334943
   3         0.00000000
   4        -0.00000000
   5        -0.00173115
   6         1.00340205
   7         0.01616498
   8         0.00000000
   9         0.00000000
  10        -0.01965342
Sym=     2a  
Ene=   -12.0580
Spin= Alpha
Occup=    1.00000
   1         0.99291530
   2        -0.00983315
   3        -0.00000000
   4         0.00000000
   5         0.01776421
   6        -0.05777726
   7         0.00460617
   8         0.00000000
   9        -0.00000000
  10        -0.01946347
Sym=     2a  
Ene=   -12.0580
Spin= Beta
Occup=    1.00000
   1         0.99291530
   2        -0.00983315
   3        -0.00000000
   4         0.00000000
   5         0.01776421
   6        -0.05777726
   7         0.00460617
   8         0.00000000
   9        -0.00000000
  10        -0.01946347
Sym=     3a  
Ene=    -1.5720
Spin= Alpha
Occup=    1.00000
   1        -0.32528495
   2         0.01049517
   3         0.00000000
   4         0.00000000
   5         0.28726813
   6        -0.06306286
   7         0.80149946
   8         0.00000000
   9         0.00000000
  10        -0.46224842
Sym=     3a  
Ene=    -1.5720
Spin= Beta
Occup=    1.00000
   1        -0.32528495
   2         0.01049517
   3         0.00000000
   4         0.00000000
   5         0.28726813
   6        -0.06306286
   7         0.80149946
   8         0.00000000
   9         0.00000000
  10        -0.46224842
Sym=     4a  
Ene=    -1.0417
Spin= Alpha
Occup=    1.00000
   1         0.00000000
   2        -0.00000000
   3         0.19246523
   4         0.28297674
   5        -0.00000000
   6         0.00000000
   7         0.00000000
   8         0.41187552
   9         0.60557013
  10         0.00000000
Sym=     4a  
Ene=    -1.0417
Spin= Beta
Occup=    1.00000
   1         0.00000000
   2        -0.00000000
   3         0.19246523
   4         0.28297674
   5        -0.00000000
   6         0.00000000
   7         0.00000000
   8         0.41187552
   9         0.60557013
  10         0.00000000
Sym=     5a  
Ene=    -1.0417
Spin= Alpha
Occup=    1.00000
   1         0.00000000
   2         0.00000000
   3         0.28297674
   4        -0.19246523
   5        -0.00000000
   6         0.00000000
   7         0.00000000
   8         0.60557013
   9        -0.41187552
  10         0.00000000
Sym=     5a  
Ene=    -1.0417
Spin= Beta
Occup=    1.00000
   1         0.00000000
   2         0.00000000
   3         0.28297674
   4        -0.19246523
   5        -0.00000000
   6         0.00000000
   7         0.00000000
   8         0.60557013
   9        -0.41187552
  10         0.00000000
Sym=     6a  
Ene=    -0.5536
Spin= Alpha
Occup=    1.00000
   1         0.14166059
   2         0.86427171
   3        -0.00000000
   4         0.00000000
   5        -0.74101232
   6         0.03920235
   7        -0.22271767
   8        -0.00000000
   9         0.00000000
  10         0.26076680
Sym=     6a  
Ene=    -0.5536
Spin= Beta
Occup=    1.00000
   1         0.14166059
   2         0.86427171
   3        -0.00000000
   4         0.00000000
   5        -0.74101232
   6         0.03920235
   7        -0.22271767
   8        -0.00000000
   9         0.00000000
  10         0.26076680
Sym=     7a  
Ene=    -0.5301
Spin= Alpha
Occup=    1.00000
   1         0.19897024
   2        -0.03185032
   3        -0.00000000
   4         0.00000000
   5        -0.30941972
   6         0.08612434
   7         0.54434164
   8        -0.00000000
   9        -0.00000000
  10         0.98496017
Sym=     7a  
Ene=    -0.5301
Spin= Beta
Occup=    0.00000
   1         0.19897024
   2        -0.03185032
   3        -0.00000000
   4         0.00000000
   5        -0.30941972
   6         0.08612434
   7         0.54434164
   8        -0.00000000
   9        -0.00000000
  10         0.98496017
Sym=     8a  
Ene=     0.0000
Spin= Alpha
Occup=    0.00000
   1         0.00000000
   2        -0.00000000
   3        -1.34083581
   4        -0.01864882
   5         0.00000000
   6        -0.00000000
   7        -0.00000000
   8         1.17417367
   9         0.01633082
  10         0.00000000
Sym=     8a  
Ene=     0.0000
Spin= Beta
Occup=    0.00000
   1         0.00000000
   2        -0.00000000
   3        -1.34083581
   4        -0.01864882
   5         0.00000000
   6        -0.00000000
   7        -0.00000000
   8         1.17417367
   9         0.01633082
  10         0.00000000
Sym=     9a  
Ene=     0.5629
Spin= Alpha
Occup=    0.00000
   1         0.00000000
   2         0.00000000
   3         0.01864882
   4        -1.34083581
   5         0.00000000
   6        -0.00000000
   7        -0.00000000
   8        -0.01633082
   9         1.17417367
  10         0.00000000
Sym=     9a  
Ene=     0.5629
Spin= Beta
Occup=    0.00000
   1         0.00000000
   2         0.00000000
   3         0.01864882
   4        -1.34083581
   5         0.00000000
   6        -0.00000000
   7        -0.00000000
   8        -0.01633082
   9         1.17417367
  10         0.00000000
Sym=    10a  
Ene=     2.7742
Spin= Alpha
Occup=    0.00000
   1        -1.80600976
   2        -5.23280361
   3        -0.00000000
   4        -0.00000000
   5        -2.71265563
   6         1.57748760
   7         5.63192410
   8         0.00000000
   9         0.00000000
  10        -1.77739025
Sym=    10a  
Ene=     2.7742
Spin= Beta
Occup=    0.00000
   1        -1.80600976
   2        -5.23280361
   3        -0.00000000
   4        -0.00000000
   5        -2.71265563
   6         1.57748760
   7         5.63192410
   8         0.00000000
   9         0.00000000
  10        -1.77739025
