[Molden Format]
[N_Atoms]
                     2
[Atoms] (AU)
C1          1      6           0.00000000      0.00000000      0.00000000
N2          2      7           0.00000000      0.00000000      1.13383567
[Charge] (Mulliken)
  0.751463462731293     
 -0.751463462731334     
[GTO] (AU)
   1
   s  14
  5.055750100E+04  1.128874000E-04
  7.524785600E+03  5.295373000E-04
  1.694327600E+03  2.450038300E-03
  4.728227900E+02  1.005398470E-02
  1.517107500E+02  3.545398060E-02
  5.391874600E+01  1.044071086E-01
  2.065931100E+01  2.412894918E-01
  8.383976000E+00  3.834225483E-01
  3.577015000E+00  3.078514393E-01
  1.547118000E+00  6.872442990E-02
  6.130130000E-01  2.224445000E-04
  2.460680000E-01  1.976748900E-03
  9.908700000E-02  2.057859400E-03
  3.468000000E-02  4.182020000E-04
   s  14
  5.055750100E+04 -2.507420000E-05
  7.524785600E+03 -1.175945000E-04
  1.694327600E+03 -5.456275000E-04
  4.728227900E+02 -2.245077100E-03
  1.517107500E+02 -8.043471800E-03
  5.391874600E+01 -2.442588710E-02
  2.065931100E+01 -6.136791180E-02
  8.383976000E+00 -1.177767835E-01
  3.577015000E+00 -1.550487783E-01
  1.547118000E+00 -1.933316860E-02
  6.130130000E-01  3.996930678E-01
  2.460680000E-01  5.589420949E-01
  9.908700000E-02  1.711195023E-01
  3.468000000E-02  7.456244600E-03
   p   9
  8.333315500E+01  1.344656000E-03
  1.955761100E+01  1.023555500E-02
  6.080365000E+00  4.520067100E-02
  2.179317000E+00  1.410756198E-01
  8.651500000E-01  3.047388085E-01
  3.619440000E-01  3.995281011E-01
  1.547400000E-01  2.719163432E-01
  6.542900000E-02  5.857669330E-02
  2.290000000E-02 -1.263813000E-04
 
   2
   s  14
  7.476171500E+04  1.182599996E-04
  1.112365400E+04  5.172899983E-04
  2.512685700E+03  2.266659992E-03
  7.037772900E+02  9.145289970E-03
  2.254787900E+02  3.239342989E-02
  7.961581000E+01  9.770792967E-02
  3.023728300E+01  2.317036792E-01
  1.226362200E+01  3.768898887E-01
  5.265086000E+00  3.177420689E-01
  2.333471000E+00  8.211308973E-02
  9.018560000E-01  3.312089989E-03
  3.583360000E-01  3.720819988E-03
  1.410930000E-01  3.165419989E-03
  4.938300000E-02  4.595799985E-04
   s  14
  7.476171500E+04 -2.707000010E-05
  1.112365400E+04 -1.183700004E-04
  2.512685700E+03 -5.203800020E-04
  7.037772900E+02 -2.102930008E-03
  2.254787900E+02 -7.568200028E-03
  7.961581000E+01 -2.346767009E-02
  3.023728300E+01 -6.042901023E-02
  1.226362200E+01 -1.170549104E-01
  5.265086000E+00 -1.555321506E-01
  2.333471000E+00 -2.468935009E-02
  9.018560000E-01  3.625054514E-01
  3.583360000E-01  5.550845021E-01
  1.410930000E-01  2.148376908E-01
  4.938300000E-02  8.983850034E-03
   p   9
  1.266665700E+02  1.233630000E-03
  2.983738900E+01  9.493409996E-03
  9.394038000E+00  4.293961998E-02
  3.405104000E+00  1.362925399E-01
  1.350000000E+00  2.921362499E-01
  5.576960000E-01  3.887887598E-01
  2.324490000E-01  2.946801399E-01
  9.426400000E-02  8.012875997E-02
  3.299200000E-02  5.405199998E-04
 
[MO]
Sym=     1a  
Ene=   -16.2570
Spin= Alpha
Occup=    1.00000
   1         0.01669837
   2        -0.02873688
   3         0.00000000
   4        -0.00000000
   5        -0.00328635
   6         1.00454044
   7         0.02212986
   8         0.00000000
   9         0.00000000
  10        -0.02286541
Sym=     1a  
Ene=   -16.2490
Spin= Beta
Occup=    1.00000
   1         0.01594968
   2        -0.02956006
   3         0.00000000
   4        -0.00000000
   5        -0.00386131
   6         1.00485155
   7         0.02344973
   8         0.00000000
   9        -0.00000000
  10        -0.02310736
Sym=     2a  
Ene=   -12.1600
Spin= Alpha
Occup=    1.00000
   1         0.99126492
   2        -0.01442369
   3        -0.00000000
   4         0.00000000
   5         0.01154164
   6        -0.05866611
   7         0.01073504
   8         0.00000000
   9        -0.00000000
  10        -0.02021040
Sym=     2a  
Ene=   -12.1320
Spin= Beta
Occup=    1.00000
   1         0.99300237
   2        -0.01150558
   3         0.00000000
   4         0.00000000
   5         0.01470147
   6        -0.05958825
   7         0.00565580
   8        -0.00000000
   9         0.00000000
  10        -0.01826675
Sym=     3a  
Ene=    -1.5331
Spin= Alpha
Occup=    1.00000
   1        -0.29580809
   2         0.15466246
   3        -0.00000000
   4         0.00000000
   5         0.30203145
   6        -0.09283903
   7         0.65798296
   8         0.00000000
   9         0.00000000
  10        -0.47319024
Sym=     3a  
Ene=    -1.5096
Spin= Beta
Occup=    1.00000
   1        -0.29292229
   2         0.13896052
   3         0.00000000
   4         0.00000000
   5         0.33004397
   6        -0.09752780
   7         0.65973983
   8        -0.00000000
   9         0.00000000
  10        -0.46604224
Sym=     4a  
Ene=    -0.9889
Spin= Alpha
Occup=    1.00000
   1         0.00000000
   2        -0.00000000
   3         0.22945412
   4         0.47533986
   5         0.00000000
   6         0.00000000
   7         0.00000000
   8         0.24323865
   9         0.50389604
  10         0.00000000
Sym=     4a  
Ene=    -0.9673
Spin= Beta
Occup=    1.00000
   1         0.00000000
   2        -0.00000000
   3         0.20680262
   4         0.42664547
   5        -0.00000000
   6         0.00000000
   7         0.00000000
   8         0.26682127
   9         0.55046732
  10         0.00000000
Sym=     5a  
Ene=    -0.9889
Spin= Alpha
Occup=    1.00000
   1         0.00000000
   2         0.00000000
   3         0.47533986
   4        -0.22945412
   5        -0.00000000
   6         0.00000000
   7        -0.00000000
   8         0.50389604
   9        -0.24323865
  10         0.00000000
Sym=     5a  
Ene=    -0.9673
Spin= Beta
Occup=    1.00000
   1         0.00000000
   2         0.00000000
   3         0.42664547
   4        -0.20680262
   5        -0.00000000
   6        -0.00000000
   7        -0.00000000
   8         0.55046732
   9        -0.26682127
  10         0.00000000
Sym=     6a  
Ene=    -0.8216
Spin= Alpha
Occup=    1.00000
   1         0.12892976
   2         0.71021284
   3        -0.00000000
   4         0.00000000
   5        -0.85979366
   6         0.09592188
   7        -0.05209137
   8        -0.00000000
   9         0.00000000
  10         0.34613835
Sym=     6a  
Ene=    -0.6297
Spin= Beta
Occup=    1.00000
   1         0.18110645
   2        -0.02783764
   3        -0.00000000
   4         0.00000000
   5        -0.31636664
   6         0.08830728
   7         0.59093943
   8        -0.00000000
   9        -0.00000000
  10         0.96257708
Sym=     7a  
Ene=    -0.6274
Spin= Alpha
Occup=    1.00000
   1         0.16049117
   2        -0.12411616
   3         0.00000000
   4         0.00000000
   5        -0.20817577
   6         0.07773925
   7         0.61756432
   8        -0.00000000
   9        -0.00000000
  10         0.91810222
Sym=     7a  
Ene=    -0.0990
Spin= Beta
Occup=    0.00000
   1        -0.14477659
   2        -0.85633738
   3         0.00000000
   4        -0.00000000
   5         0.74827777
   6        -0.04244312
   7         0.24972537
   8         0.00000000
   9        -0.00000000
  10        -0.25563683
Sym=     8a  
Ene=     0.5608
Spin= Alpha
Occup=    0.00000
   1         0.00000000
   2         0.00000000
   3        -1.27921594
   4        -0.01779179
   5         0.00000000
   6        -0.00000000
   7        -0.00000000
   8         1.26567018
   9         0.01760339
  10         0.00000000
Sym=     8a  
Ene=     0.6178
Spin= Beta
Occup=    0.00000
   1         0.00000000
   2         0.00000000
   3        -0.35311369
   4        -1.25132897
   5         0.00000000
   6        -0.00000000
   7        -0.00000000
   8         0.33714797
   9         1.19475124
  10         0.00000000
Sym=     9a  
Ene=     0.5608
Spin= Alpha
Occup=    0.00000
   1         0.00000000
   2         0.00000000
   3         0.01779179
   4        -1.27921594
   5         0.00000000
   6        -0.00000000
   7        -0.00000000
   8        -0.01760339
   9         1.26567018
  10         0.00000000
Sym=     9a  
Ene=     0.6178
Spin= Beta
Occup=    0.00000
   1        -0.00000000
   2        -0.00000000
   3         1.25132897
   4        -0.35311369
   5         0.00000000
   6         0.00000000
   7         0.00000000
   8        -1.19475124
   9         0.33714797
  10        -0.00000000
Sym=    10a  
Ene=     2.7612
Spin= Alpha
Occup=    0.00000
   1        -1.81672824
   2        -5.25225707
   3        -0.00000000
   4        -0.00000000
   5        -2.68556003
   6         1.57325951
   7         5.64708050
   8         0.00000000
   9         0.00000000
  10        -1.79558818
Sym=    10a  
Ene=     2.8131
Spin= Beta
Occup=    0.00000
   1        -1.81311826
   2        -5.23226155
   3        -0.00000000
   4        -0.00000000
   5        -2.70499804
   6         1.57453597
   7         5.64444446
   8         0.00000000
   9         0.00000000
  10        -1.78933866
