   This run of MOLCAS is using the pymolcas driver

                             OPE
                             OPE          NMOL  CASOP  ENMOLC A   SO
                 OPE        NMOLC        AS  OP EN  MO LC     AS  OP
                OPENM       OL CA        SO  PE NM  OL CA     SOP EN
                OP EN      MO   LC       AS  OP ENMOL  CASO   PENMOL
                OP  EN     MO   LC       AS  OP EN     MO     LC ASO
               OP   E  NMOL  C  AS       OP  EN MO     LC     AS  OP
               OP  E   NMO   LC AS        OPEN  MO     LCASOP EN   M
               O  PEN   MO  LCA  SO
            OPE   NMO   L   CAS    OP
        OPENMOL  CASOP     ENMOL   CASOPE
     OPENMOLCA   SOPENMOLCASOPEN   MOLCASOPE
    OPENMOLCAS   OP           EN   MOL    CAS
    OPENMOLCAS       OP  ENM        O     LCA
    OPENMOLCAS    OPEN  MOLCASO     P  E  NMO
    OPENMOLCAS     OP               E  N  MOL
    OPENMOLCA   SO           PENM   O  L  CAS    OPEN    MO    LCAS
    OPENMOLCA   SOP           ENM   O  L  CAS   OP  EN  MOLC  AS   O
    OPENMOLCA   SOPE           NM      O  LCA   S      OP  EN MO
    OPENMOLC                AS         O  PEN   M      OL  CA  SOPE
    OPENMO        LCASOPE  NMOL        C  ASO   P      ENMOLC     AS
    OPE     NMO      LCA  SO     P     E   NM   OL  CA SO  PE N   MO
          OPENMOLCA            SOPE   NMO        LCAS  O    P  ENMO
     OPENMOLCASOPENMOLCASOPENMOLCASOPENMOLCA
        OPENMOLCASOPENMOLCASOPENMOLCASOPE
            OPENMOLCASOPENMOLCASOPENM
               OPENMOLCASOPENMOLCA        version: ea724fe96-dirty
                   OPENMOLCASO
                       OPE                tag:

 OpenMolcas is free software; you can redistribute it and/or modify it
 under the terms of the GNU Lesser General Public License version 2.1.
 OpenMolcas is distributed in the hope that it will be useful, but it
 is provided "as is" and without any express or implied warranties.
 For more details see the full text of the license in the file
 LICENSE or in <http://www.gnu.org/licenses/>.

                 Copyright (C) The OpenMolcas Authors
           For the author list and the recommended citation,
                   consult the file CONTRIBUTORS.md

           *************************************************
           * pymolcas version py2.28                       *
           *   build c4a6d18ded8cb6cad61d2372a9abd97c      *
           *   (after the EMIL interpreter by V. Veryazov) *
           *************************************************

configuration info
------------------
C Compiler ID: Intel
C flags: -std=gnu99
Fortran Compiler ID: Intel
Fortran flags: -fpp -i8 -r8 -heap-arrays
Definitions: _MOLCAS_;_I8_;_LINUX_
Parallel: OFF (GA=OFF)


   ------------------------------------------------------------------------------
  |
  |              Project: ozone_169.50
  |       Submitted from: /home/grierjones/DDCASPT2/ozone/ANO-RCC-MB/ozone_169.50
  |         Scratch area: /tmp/ozone_169.50
  |      Save outputs to: /home/grierjones/DDCASPT2/ozone/ANO-RCC-MB/ozone_169.50
  |               Molcas: /home/grierjones/Test/build
  |
  | Scratch area is empty
  |
  |       MOLCAS_DRIVER = /usr/local/pymolcas
  | MOLCAS_KEEP_WORKDIR = NO
  |  MOLCAS_NEW_WORKDIR = YES
  |       MOLCAS_NPROCS = 1
  |        MOLCAS_PRINT = NORMAL
  |       MOLCAS_SOURCE = /home/grierjones/Test/build
  |    MOLCAS_STRUCTURE = 0
  |
   ------------------------------------------------------------------------------

++ ---------   Input file   ---------

&GATEWAY
coord=ozone_169.50.xyz
Basis = ANO-RCC-MB
Group = nosymm
Expert
End of Input

&SEWARD
End of Input

&SCF

>>> COPY $WorkDir/ozone_169.50.scf.h5 $CurrDir/

&RASSCF
Title= RASSCF
FileOrb
/home/grierjones/DDCASPT2/ozone/ANO-RCC-MB/ozone_169.00/ozone_169.00.RasOrb
NACTEL
4 0 0
Inactive
10
RAS2
3
Symmetry
1
Spin
1
orblisting
all
ITERation
200 100
CIMX
200
SDAV
500

>>> COPY $WorkDir/ozone_169.50.rasscf.h5 $CurrDir/

>>> COPY $WorkDir/GMJ_Fock_MO.csv $CurrDir/ozone_169.50.GMJ_Fock_MO.csv

>>> COPY $WorkDir/GMJ_PT2_Fock_MO.csv $CurrDir/ozone_169.50.GMJ_PT2_Fock_MO.csv

&MOTRA
Frozen=0
LUMORB

>>> COPY $WorkDir/GMJ_one_int_indx.csv $CurrDir/ozone_169.50.GMJ_one_int_indx.csv

>>> COPY $WorkDir/GMJ_one_int.csv $CurrDir/ozone_169.50.GMJ_one_int.csv

>>> COPY $WorkDir/GMJ_two_int_indx.csv $CurrDir/ozone_169.50.GMJ_two_int_indx.csv

>>> COPY $WorkDir/GMJ_two_int.csv $CurrDir/ozone_169.50.GMJ_two_int.csv

&CASPT2
Frozen
0

>>> FOREACH i IN (B,E,F,G,H)

  >>> FOREACH j IN (P,M)

    >>> IF (-FILE GMJ_e2_${i}_${j}.csv)

      >>> COPY $WorkDir/GMJ_RHS_${i}_${j}.csv $CurrDir/GMJ_RHS_${i}_${j}.csv

      >>> COPY $WorkDir/GMJ_IVECW_${i}_${j}.csv $CurrDir/GMJ_IVECW_${i}_${j}.csv

      >>> COPY $WorkDir/GMJ_IVECX_${i}_${j}.csv $CurrDir/GMJ_IVECX_${i}_${j}.csv

      >>> COPY $WorkDir/GMJ_IVECC2_${i}_${j}.csv $CurrDir/GMJ_IVECC2_${i}_${j}.csv

      >>> COPY $WorkDir/GMJ_e2_${i}_${j}.csv $CurrDir/GMJ_e2_${i}_${j}.csv

    >>> END IF

  >>> END FOREACH

>>> END FOREACH

>>> FOREACH i IN (A,C,D)

  >>> IF (-FILE GMJ_e2_$i.csv)

    >>> COPY $WorkDir/GMJ_RHS_$i.csv $CurrDir/GMJ_RHS_$i.csv

    >>> COPY $WorkDir/GMJ_IVECW_$i.csv $CurrDir/GMJ_IVECW_$i.csv

    >>> COPY $WorkDir/GMJ_IVECX_$i.csv $CurrDir/GMJ_IVECX_$i.csv

    >>> COPY $WorkDir/GMJ_IVECC2_$i.csv $CurrDir/GMJ_IVECC2_$i.csv

    >>> COPY $WorkDir/GMJ_e2_$i.csv $CurrDir/GMJ_e2_$i.csv

  >>> END IF

>>> END FOREACH

-- ----------------------------------

--- Start Module: gateway at Wed Nov 13 12:08:34 2024 ---
 
()()()()()()()()()()()()()()()()()()()()()()()()()()()()()()()()()()()()()()()()()()()()()()()()()()

                                              &GATEWAY

                                   only a single process is used
                       available to each process: 2.0 GB of memory, 1 thread?
()()()()()()()()()()()()()()()()()()()()()()()()()()()()()()()()()()()()()()()()()()()()()()()()()()
 
 ###############################################################################
 ###############################################################################
 ###                                                                         ###
 ###                                                                         ###
 ###                                                                         ###
 ###    WARNING: EXPERT option is ON!                                        ###
 ###                                                                         ###
 ###                                                                         ###
 ###############################################################################
 ###############################################################################
 
++    Symmetry information:
      ---------------------
 
                    Character Table for C1 
 
                             E  
                    a        1  x, y, xy, Rz, z, xz, Ry, yz, Rx, I
--
 
 
++    Basis set information:
      ----------------------
 
 
      Basis set label: O.ANO-RCC...2S1P.
 
      Electronic valence basis set:
      ------------------
      Associated Effective Charge   8.000000 au
      Associated Actual Charge      8.000000 au
      Nuclear Model: Point charge
 
      Shell  nPrim  nBasis  Cartesian Spherical Contaminant
         s      14       2        X                  
         p       9       1        X                  
--
 
 
++    Molecular structure info:
      -------------------------
 
                    ************************************************ 
                    **** Cartesian Coordinates / Bohr, Angstrom **** 
                    ************************************************ 
 
     Center  Label                x              y              z                     x              y              z
        1      O1               0.220983       2.404939       0.000000              0.116939       1.272639       0.000000
        2      O2               0.000000       0.000000       0.000000              0.000000       0.000000       0.000000
        3      O3               0.220983      -2.404939       0.000000              0.116939      -1.272639       0.000000
 
                    *************************************** 
                    *    InterNuclear Distances / Bohr    * 
                    *************************************** 
 
               1 O1            2 O2            3 O3    
    1 O1       0.000000
    2 O2       2.415071        0.000000
    3 O3       4.809878        2.415071        0.000000
 
                    ******************************************* 
                    *    InterNuclear Distances / Angstrom    * 
                    ******************************************* 
 
               1 O1            2 O2            3 O3    
    1 O1       0.000000
    2 O2       1.278000        0.000000
    3 O3       2.545278        1.278000        0.000000
 
                    ************************************** 
                    *    Valence Bond Angles / Degree    * 
                    ************************************** 
                          Atom centers                 Phi
                      1 O1       2 O2       3 O3       169.50
--
 
 
            Nuclear Potential Energy             66.30647204 au
 
 ###############################################################################
 ###############################################################################
 ###                                                                         ###
 ###                                                                         ###
 ###    There were warnings during the execution                             ###
 ###    Please, check the output with care!                                  ###
 ###                                                                         ###
 ###                                                                         ###
 ###############################################################################
 ###############################################################################
--- Stop Module: gateway at Wed Nov 13 12:08:34 2024 /rc=_RC_ALL_IS_WELL_ ---
*** files: xmldump
    saved to directory /home/grierjones/DDCASPT2/ozone/ANO-RCC-MB/ozone_169.50

--- Start Module: seward at Wed Nov 13 12:08:34 2024 ---
 
()()()()()()()()()()()()()()()()()()()()()()()()()()()()()()()()()()()()()()()()()()()()()()()()()()

                                              &SEWARD

                                   only a single process is used
                       available to each process: 2.0 GB of memory, 1 thread?
()()()()()()()()()()()()()()()()()()()()()()()()()()()()()()()()()()()()()()()()()()()()()()()()()()
 
 ###############################################################################
 ###############################################################################
 ###                                                                         ###
 ###                                                                         ###
 ###                                                                         ###
 ###    WARNING: EXPERT option is ON!                                        ###
 ###                                                                         ###
 ###                                                                         ###
 ###############################################################################
 ###############################################################################
               SEWARD will generate:
                  Multipole Moment integrals up to order  2
                  Kinetic Energy integrals
                  Nuclear Attraction integrals (point charge)
                  One-Electron Hamiltonian integrals
                  Velocity integrals
                  Relativistic Douglas-Kroll-Hess integrals:
                    - Parametrization         : EXP
                    - DKH order of Hamiltonian: 2
                    - DKH order of Properties : 0
                         - multipole moment operators
                         - electric potential operators
                         - contact operators
                  Atomic mean-field integrals
                  Two-Electron Repulsion integrals
 
                   Integrals are discarded if absolute value <: 0.10E-13
                   Integral cutoff threshold is set to       <: 0.10E-15
 
            Nuclear Potential Energy             66.30647204 au
 
 
      Basis set specifications :
      Symmetry species         a  
      Basis functions           15
 
 
  Input file to MOLDEN was generated!
 
 ###############################################################################
 ###############################################################################
 ###                                                                         ###
 ###                                                                         ###
 ###    There were warnings during the execution                             ###
 ###    Please, check the output with care!                                  ###
 ###                                                                         ###
 ###                                                                         ###
 ###############################################################################
 ###############################################################################
--- Stop Module: seward at Wed Nov 13 12:08:35 2024 /rc=_RC_ALL_IS_WELL_ ---
*** files: ozone_169.50.GssOrb ozone_169.50.guessorb.h5 ozone_169.50.guessorb.molden xmldump
    saved to directory /home/grierjones/DDCASPT2/ozone/ANO-RCC-MB/ozone_169.50

*** symbolic link created: INPORB -> ozone_169.50.GssOrb
--- Start Module: scf at Wed Nov 13 12:08:35 2024 ---
 
()()()()()()()()()()()()()()()()()()()()()()()()()()()()()()()()()()()()()()()()()()()()()()()()()()

                                                &SCF

                                   only a single process is used
                       available to each process: 2.0 GB of memory, 1 thread?
()()()()()()()()()()()()()()()()()()()()()()()()()()()()()()()()()()()()()()()()()()()()()()()()()()
 
++    Input section:
      --------------
 
      Header of the integral files:
      
       Integrals generated by seward 4.2.0  , Wed Nov 13 12:08:34 2024
 
 
      Cartesian coordinates in Angstrom:
      -----------------------------------------------------
      No.  Label        X            Y            Z        
      -----------------------------------------------------
       1   O1         0.11693900   1.27263900   0.00000000
       2   O2         0.00000000   0.00000000   0.00000000
       3   O3         0.11693900  -1.27263900   0.00000000
      -----------------------------------------------------
      Nuclear repulsion energy =   66.30647204
--
 
++    Orbital specifications:
      -----------------------
 
      Symmetry species               1
                                     a
      Frozen orbitals                0
      Aufbau                        12
      Start temperature = 0.500
      End temperature   = 0.010
      Temperature Factor= 0.460
      Deleted orbitals               0
      Total number of orbitals      15
      Number of basis functions     15
--
 
      Molecular charge                           0.000
 
++    Optimization specifications:
      ----------------------------
 
      SCF Algorithm: Conventional
      Minimized density differences are used
      Number of density matrices in core                5
      Maximum number of NDDO SCF iterations           400
      Maximum number of HF SCF iterations             400
      Threshold for SCF energy change            0.10E-08
      Threshold for density matrix               0.10E-03
      Threshold for Fock matrix                  0.15E-03
      Threshold for linear dependence            0.10E-08
      Threshold at which DIIS is turned on       0.15E+00
      Threshold at which QNR/C2DIIS is turned on 0.75E-01
      Threshold for Norm(delta) (QNR/C2DIIS)     0.20E-04
      DIIS extrapolation of the SCF procedure
      All orbitals punched on: SCFORB
--
 
      Input vectors read from INPORB
      Orbital file label: *Guess orbitals
 
 
++ Convergence information
                                   SCF        iterations: Energy and convergence statistics
 
Iter     Tot. SCF        One-elec.       Two-elec.     Energy      Max Dij or  Max Fij      DNorm      TNorm      AccCon     Time
         Energy          Energy          Energy        Change      Delta Norm                                                in Sec.
   1  -221.453293102  -440.259908767   152.500143624   0.00E+00    0.66E-01*   0.13E+00*    0.77E+01   0.50E+02   None         0.
   2  -222.905591407  -439.404059981   150.191996533  -0.15E+01*   0.58E-01*   0.45E-01*    0.30E+01   0.50E+02   EDIIS        0.
   3  -223.691120670  -439.015498095   149.017905383  -0.79E+00*   0.36E-01*   0.25E-01*    0.15E+01   0.49E+02   EDIIS        0.
   4  -223.952925988  -438.437390158   148.177992128  -0.26E+00*   0.81E-01*   0.55E-01*    0.33E+00   0.49E+02   EDIIS        0.
   5  -223.984984267  -438.776168130   148.484711821  -0.32E-01*   0.75E-01*   0.33E-01*    0.67E+00   0.49E+02   EDIIS        0.
   6  -224.185159494  -438.478308055   147.986676520  -0.20E+00*   0.35E-01*   0.38E-01*    0.74E+00   0.49E+02   EDIIS        0.
   7  -224.188234761  -438.627143127   148.132436325  -0.31E-02*   0.40E-01*   0.14E-01*    0.92E-01   0.49E+02   EDIIS        0.
 
       Fermi aufbau procedure completed!
      nOcc=   12
 
   8  -224.188886466  -438.551818249   148.056459742  -0.65E-03*   0.12E-01*   0.93E-02*    0.43E-01   0.49E+02   EDIIS        0.
   9  -224.189105753  -438.595668200   148.100090406  -0.22E-03*   0.13E-01*   0.46E-02*    0.11E-01   0.49E+02   EDIIS        0.
  10  -224.189183155  -438.574983919   148.079328723  -0.77E-04*   0.39E-02*   0.27E-02*    0.24E-02   0.49E+02   EDIIS        0.
  11  -224.189211563  -438.587763027   148.092079422  -0.28E-04*   0.41E-02*   0.15E-02*    0.54E-03   0.49E+02   EDIIS        0.
  12  -224.189222446  -438.582039321   148.086344834  -0.11E-04*   0.29E-02*   0.30E-03*    0.17E-03   0.49E+02   c2DIIS       0.
  13  -224.189224381  -438.583348163   148.087651741  -0.19E-05*   0.11E-02*   0.62E-03*    0.61E-05   0.49E+02   QNRc2DIIS    0.
  14  -224.189227569  -438.585207335   148.089507725  -0.32E-05*   0.23E-02*   0.36E-03*    0.20E-01   0.49E+02   QNRc2DIIS    0.
  15  -224.189229908  -438.584581040   148.088879091  -0.23E-05*   0.19E-03*   0.16E-03*    0.15E-03   0.49E+02   QNRc2DIIS    0.
  16  -224.189229991  -438.585151049   148.089449017  -0.83E-07*   0.27E-03*   0.43E-04     0.30E-02   0.49E+02   QNRc2DIIS    0.
  17  -224.189230031  -438.585144010   148.089441938  -0.40E-07*   0.68E-05    0.29E-05     0.46E-03   0.49E+02   QNRc2DIIS    0.
  18  -224.189230031  -438.585140771   148.089438699  -0.48E-10    0.21E-06    0.11E-06     0.68E-03   0.49E+02   QNRc2DIIS    0.
 
       Convergence after 18 Macro Iterations
--
 
 *****************************************************************************************************************************
 *                                                                                                                           *
 *                                             SCF/KS-DFT Program, Final results                                             *
 *                                                                                                                           *
 *                                                                                                                           *
 *                                                                                                                           *
 *                                                       Final Results                                                       *
 *                                                                                                                           *
 *****************************************************************************************************************************
 
::    Total SCF energy                               -224.1892300307
      One-electron energy                            -438.5851407707
      Two-electron energy                             148.0894386986
      Nuclear repulsion energy                         66.3064720414
      Kinetic energy (interpolated)                   224.7726084237
      Virial theorem                                    0.9974045841
      Total spin, S(S+1)                                0.0000000000
      Total spin, S                                     0.0000000000
      Max non-diagonal density matrix element           0.0000003253
      Max non-diagonal Fock matrix element              0.0000000571
 
 
      All orbitals with orbital energies smaller than  E(LUMO)+0.5 are printed
 
++    Molecular orbitals:
      -------------------
 
      Title: SCF orbitals

      Molecular orbitals for symmetry species 1: a  
 
          Orbital            1         2         3         4         5         6         7         8         9        10    
          Energy          -20.9933  -20.8135  -20.8134   -1.7497   -1.5115   -1.1019   -0.8779   -0.8041   -0.8035   -0.6591
          Occ. No.          2.0000    2.0000    2.0000    2.0000    2.0000    2.0000    2.0000    2.0000    2.0000    2.0000
 
        1 O1     1s         0.0012   -0.7071    0.7071   -0.0153    0.0166    0.0139   -0.0033   -0.0000   -0.0281    0.0030
        2 O1     2s        -0.0003   -0.0002    0.0000    0.3172   -0.5322    0.6597   -0.0591   -0.0000   -0.4659    0.0441
        3 O1     2px       -0.0001    0.0001   -0.0001   -0.0109    0.0081    0.0223    0.3008   -0.0000   -0.1048   -0.7059
        4 O1     2py        0.0000    0.0013   -0.0011   -0.1049    0.1050    0.1567   -0.0629   -0.0000   -0.4071    0.1129
        5 O1     2pz       -0.0000    0.0000    0.0000   -0.0000   -0.0000    0.0000    0.0000    0.3901   -0.0000   -0.0000
        6 O2     1s         1.0000   -0.0000   -0.0020   -0.0241    0.0000   -0.0137   -0.0011    0.0000    0.0000    0.0000
        7 O2     2s         0.0002   -0.0000   -0.0010    0.6595   -0.0000   -0.6182   -0.0177    0.0000    0.0000    0.0000
        8 O2     2px        0.0004   -0.0000   -0.0000    0.0344   -0.0000    0.0441    0.7769   -0.0000    0.0000   -0.0000
        9 O2     2py       -0.0000    0.0007   -0.0000   -0.0000   -0.3615    0.0000   -0.0000    0.0000    0.5986   -0.0694
       10 O2     2pz        0.0000   -0.0000   -0.0000    0.0000    0.0000    0.0000    0.0000    0.6812   -0.0000    0.0000
       11 O3     1s         0.0012    0.7071    0.7071   -0.0153   -0.0166    0.0139   -0.0033    0.0000    0.0281   -0.0030
       12 O3     2s        -0.0003    0.0002    0.0000    0.3172    0.5322    0.6597   -0.0591    0.0000    0.4659   -0.0441
       13 O3     2px       -0.0001   -0.0001   -0.0001   -0.0109   -0.0081    0.0223    0.3008   -0.0000    0.1048    0.7059
       14 O3     2py       -0.0000    0.0013    0.0011    0.1049    0.1050   -0.1567    0.0629   -0.0000   -0.4071    0.1129
       15 O3     2pz        0.0000   -0.0000   -0.0000   -0.0000   -0.0000    0.0000    0.0000    0.3901   -0.0000    0.0000
 
          Orbital           11        12        13        14    
          Energy           -0.5441   -0.5310   -0.0887    0.1168
          Occ. No.          2.0000    2.0000    0.0000    0.0000
 
        1 O1     1s        -0.0000    0.0013   -0.0000    0.0156
        2 O1     2s        -0.0000    0.0082    0.0000    0.2281
        3 O1     2px        0.0000    0.6651   -0.0000   -0.0104
        4 O1     2py       -0.0000    0.0165   -0.0000   -0.7649
        5 O1     2pz       -0.7161    0.0000    0.6180   -0.0000
        6 O2     1s        -0.0000    0.0073   -0.0000   -0.0833
        7 O2     2s        -0.0000    0.0857   -0.0000   -0.8620
        8 O2     2px        0.0000   -0.6857    0.0000   -0.1476
        9 O2     2py       -0.0000   -0.0000   -0.0000    0.0000
       10 O2     2pz       -0.0000   -0.0000   -0.7942    0.0000
       11 O3     1s        -0.0000    0.0013   -0.0000    0.0156
       12 O3     2s        -0.0000    0.0082   -0.0000    0.2281
       13 O3     2px       -0.0000    0.6651   -0.0000   -0.0104
       14 O3     2py       -0.0000   -0.0165    0.0000    0.7649
       15 O3     2pz        0.7161    0.0000    0.6180    0.0000
--
 
 
++    Molecular charges:
      ------------------
 
      Mulliken charges per centre and basis function type
      ---------------------------------------------------
 
                O1      O2      O3    
      1s       2.0001  2.0000  2.0001
      2s       1.9202  1.6599  1.9202
      2px      1.9943  1.9781  1.9943
      2pz      1.4239  1.1521  1.4239
      2py      0.6994  1.1339  0.6994
      Total    8.0380  7.9240  8.0380
 
      N-E     -0.0380  0.0760 -0.0380
 
      Total electronic charge=   24.000000
 
      Total            charge=   -0.000000
--
 
 
  Input file to MOLDEN was generated!
 
 
++    Static properties:
      ------------------
 
 
      LoProp Charges per center
 

                   O1       O2       O3    
      Nuclear      8.0000   8.0000   8.0000
      Electronic  -8.0868  -7.8264  -8.0868
 
      Total       -0.0868   0.1736  -0.0868
--
 
 
++    Natural Bond Order analysis
      ---------------------------
      Based on LoProp computed density
      -------------------------------------------------------------------------------------
      Atom A       Atom B       Bond Order | Atom A       Atom B       Bond Order
        O1           O2             2.000  |   O2           O3             2.000
      -------------------------------------------------------------------------------------
      NBO located     12.000 core electrons.
      NBO located      3.969 lone pair electrons.
      NBO located      8.000 electrons involved in    2 bonds.
      The remaining    0.031 electrons are to be considered as diffuse
--
 
 
++    Molecular properties:
      ---------------------
 
      Charge (e):
                      =   -0.0000
      Dipole Moment (Debye):
      Origin of the operator (Ang)=    0.0000    0.0000    0.0000
                   X=  1.0058E-01               Y=  9.6089E-11               Z=  1.7527E-13           Total=  1.0058E-01
      Quadrupole Moment (Debye*Ang):
      Origin of the operator (Ang)=    0.0780    0.0000    0.0000
                  XX= -1.7479E+01              XY=  3.5159E-12              XZ= -2.5190E-12              YY= -1.7686E+01
                  YZ=  1.9512E-13              ZZ= -1.5871E+01
      In traceless form (Debye*Ang)
                  XX= -7.0075E-01              XY=  5.2738E-12              XZ= -3.7784E-12              YY= -1.0106E+00
                  YZ=  2.9268E-13              ZZ=  1.7114E+00
--
 
 
  Input file to MOLDEN was generated!
 
 ###############################################################################
 ###############################################################################
 ###                                                                         ###
 ###                                                                         ###
 ###    RunFile label nBas                                                   ###
 ###    was used       78 times                                              ###
 ###                                                                         ###
 ###                                                                         ###
 ###############################################################################
 ###############################################################################
--- Stop Module: scf at Wed Nov 13 12:08:35 2024 /rc=_RC_ALL_IS_WELL_ ---
*** files: ozone_169.50.LprOrb ozone_169.50.LoProp.molden ozone_169.50.scf.molden ozone_169.50.ScfOrb ozone_169.50.scf.h5 xmldump
    saved to directory /home/grierjones/DDCASPT2/ozone/ANO-RCC-MB/ozone_169.50

>>> COPY /tmp/ozone_169.50/ozone_169.50.scf.h5 /home/grierjones/DDCASPT2/ozone/ANO-RCC-MB/ozone_169.50/

*** symbolic link created: INPORB -> ozone_169.50.ScfOrb
--- Start Module: rasscf at Wed Nov 13 12:08:35 2024 ---
 
()()()()()()()()()()()()()()()()()()()()()()()()()()()()()()()()()()()()()()()()()()()()()()()()()()

                                              &RASSCF

                                   only a single process is used
                       available to each process: 2.0 GB of memory, 1 thread?
()()()()()()()()()()()()()()()()()()()()()()()()()()()()()()()()()()()()()()()()()()()()()()()()()()
 
 
      Header of the ONEINT file:
      --------------------------
      
      Integrals generated by seward 4.2.0  , Wed Nov 13 12:08:34 2024
 
 
      OrdInt status: non-squared
 
 
      Cartesian coordinates in Angstrom:
      -----------------------------------------------------
      No.  Label        X            Y            Z        
      -----------------------------------------------------
       1   O1         0.11693900   1.27263900   0.00000000
       2   O2         0.00000000   0.00000000   0.00000000
       3   O3         0.11693900  -1.27263900   0.00000000
      -----------------------------------------------------
      Nuclear repulsion energy =   66.30647204
 
++    Wave function specifications:
      -----------------------------
 
      Number of closed shell electrons          20
      Number of electrons in active shells       4
      Max number of holes in RAS1 space          0
      Max nr of electrons in RAS3 space          0
      Number of inactive orbitals               10
      Number of active orbitals                  3
      Number of secondary orbitals               2
      Spin quantum number                      0.0
      State symmetry                             1
--
 
++    Orbital specifications:
      -----------------------
 
      Symmetry species                           1
                                                 a
      Frozen orbitals                            0
      Inactive orbitals                         10
      Active orbitals                            3
      RAS1 orbitals                              0
      RAS2 orbitals                              3
      RAS3 orbitals                              0
      Secondary orbitals                         2
      Deleted orbitals                           0
      Number of basis functions                 15
--
 
++    CI expansion specifications:
      ----------------------------
 
      Number of CSFs                             6
      Number of determinants                     6
      Number of root(s) required                 1
      Root chosen for geometry opt.              1
      CI root used                               1
         
      highest root included in the CI            1
      max. size of the explicit Hamiltonian      6
--
 
++    Optimization specifications:
      ----------------------------
 
      RASSCF algorithm: Conventional
      Maximum number of macro iterations       200
      Maximum number of SX iterations          100
      Threshold for RASSCF energy            0.100E-07
      Threshold for max MO rotation          0.100E+00
      Threshold for max BLB element          0.100E-03
      Level shift parameter                  0.500E+00
      Make Quasi-Newton update
--
 
      The MO-coefficients are taken from the file:
      /home/grierjones/DDCASPT2/ozone/ANO-RCC-MB/ozone_169.00/ozone_169.00.RasOrb                                                     
      Title: RASSCF average (pseudo-natural) orbitals                                      
 
      Total molecular charge    0.00
 
      ************************************************************************************************************************
      *                                                                                                                      *
      *                                            Wave function control section                                             *
      *                                                                                                                      *
      ************************************************************************************************************************
 
 
                                         RASSCF iterations: Energy and convergence statistics
                                         ----------------------------------------------------
 
      Iter CI   SX   CI       RASSCF       Energy    max ROT     max BLB   max BLB  Level Ln srch  Step   QN   Walltime
          iter iter root      energy       change     param      element    value   shift minimum  type update hh:mm:ss
 Nr of preliminary CI iterations:   1
        1   1    3    1  -224.27920749    0.00E+00   0.14E-02    9  15 1  0.35E-02*  0.24   0.00    SX    NO    0:00:00
        2   1    3    1  -224.27922430   -0.17E-04* -0.83E-03    7  14 1 -0.20E-02*  0.24   0.00    SX    NO    0:00:00
        3   1    3    1  -224.27922920   -0.49E-05*  0.50E-03    7  14 1 -0.12E-02*  0.24   0.00    SX    NO    0:00:00
        4   1    3    1  -224.27923083   -0.16E-05*  0.28E-03    7  14 1 -0.67E-03*  0.24   0.00    SX    NO    0:00:00
        5   1    3    1  -224.27923137   -0.54E-06* -0.27E-03    7  14 1 -0.39E-03*  0.24   1.95    LS   YES    0:00:00
        6   1    3    1  -224.27923163   -0.26E-06*  0.12E-03   10  14 1  0.17E-03*  0.24   1.44    LS   YES    0:00:00
        7   1    3    1  -224.27923167   -0.38E-07* -0.11E-03    8  15 1 -0.12E-03*  0.24   1.23    QN   YES    0:00:00
        8   1    2    1  -224.27923170   -0.37E-07* -0.11E-03    9  15 1 -0.84E-04   0.24   1.24    QN   YES    0:00:00
        9   1    2    1  -224.27923173   -0.26E-07* -0.11E-03   10  14 1  0.42E-04   0.24   1.31    QN   YES    0:00:00
       10   1    2    1  -224.27923174   -0.83E-08   0.73E-05    8  15 1  0.19E-04   0.24   1.00    QN   YES    0:00:00
      Convergence after 10 iterations
 
  Dmat in MO in SXCTL bf call to SXHAM                                                                                    
  mat. size =     3x    3
 
        1.9815235176356545
        0.0000000000000784      1.7034652741568865
        0.0015084269108613      0.0000000000001103      0.3150112082074581
       11   1    2    1  -224.27923174   -0.87E-10   0.73E-05    8  15 1 -0.16E-04   0.24   1.00    QN   YES    0:00:00
 
      ************************************************************************************************************************
                                                      Wave function printout:
                       occupation of active orbitals, and spin coupling of open shells (u,d: Spin up or down)
      ************************************************************************************************************************
 
      Note: transformation to natural orbitals
      has been made, which may change the order of the CSFs.
 
      printout of CI-coefficients larger than  0.05 for root  1
      energy=    -224.279232
      conf/sym  111     Coeff  Weight
             1  220  -0.91788 0.84250
             3  202   0.38506 0.14827
             6  022   0.09611 0.00924
 
      Natural orbitals and occupation numbers for root  1
      sym 1:   1.981525   1.703465   0.315010
 
      ************************************************************************************************************************
      *                                                                                                                      *
      *                                                    Final results                                                     *
      *                                                                                                                      *
      ************************************************************************************************************************
 
 
++    Wave function specifications:
      -----------------------------
 
      Number of closed shell electrons          20
      Number of electrons in active shells       4
      Max number of holes in RAS1 space          0
      Max nr of electrons in RAS3 space          0
      Number of inactive orbitals               10
      Number of active orbitals                  3
      Number of secondary orbitals               2
      Spin quantum number                      0.0
      State symmetry                             1
--
 
++    Orbital specifications:
      -----------------------
 
      Symmetry species                           1
                                                 a
      Frozen orbitals                            0
      Inactive orbitals                         10
      Active orbitals                            3
      RAS1 orbitals                              0
      RAS2 orbitals                              3
      RAS3 orbitals                              0
      Secondary orbitals                         2
      Deleted orbitals                           0
      Number of basis functions                 15
--
 
++    CI expansion specifications:
      ----------------------------
 
      Number of CSFs                             6
      Number of determinants                     6
      Number of root(s) required                 1
      CI root used                               1
      highest root included in the CI            1
      Root passed to geometry opt.               1
--
 
++    Final optimization conditions:
      ------------------------------
 
      Average CI energy                            -224.27923174
      RASSCF energy for state  1                   -224.27923174
      Super-CI energy                                -0.00000000
      RASSCF energy change                           -0.00000000
      Max change in MO coefficients              -0.654E-05
      Max non-diagonal density matrix element     0.734E-05
      Maximum BLB matrix element                 -0.158E-04
      (orbital pair   8,  15 in symmetry   1)
      Norm of electronic gradient            0.173E-04
--
 
 
      Final state energy(ies):
      ------------------------
 
::    RASSCF root number  1 Total energy:   -224.27923174
 
++    Molecular orbitals:
      -------------------
 
      Pseudonatural active orbitals and approximate occupation numbers
 
 
 
 
      Molecular orbitals for symmetry species 1: a  
 
 
      Orbital                1         2         3         4         5         6         7         8         9        10
      Energy          -20.8579  -20.8534  -20.8534   -1.7135   -1.5020   -1.0957   -0.8404   -0.7962   -0.6743   -0.5142
      Occ. No.          2.0000    2.0000    2.0000    2.0000    2.0000    2.0000    2.0000    2.0000    2.0000    2.0000
 
    1 O1     1s         0.0448   -0.7071    0.7057   -0.0143    0.0145    0.0143   -0.0027   -0.0258    0.0035    0.0011
    2 O1     2s        -0.0004   -0.0001   -0.0001    0.3538   -0.5584    0.6363   -0.0443   -0.4181    0.0513    0.0022
    3 O1     2px       -0.0001    0.0001   -0.0001   -0.0106    0.0069    0.0246    0.3811   -0.1265   -0.7027    0.6226
    4 O1     2py        0.0001    0.0012   -0.0011   -0.1105    0.1012    0.1882   -0.0666   -0.4432    0.1270    0.0394
    5 O1     2pz       -0.0000   -0.0000    0.0000   -0.0000   -0.0000   -0.0000    0.0000   -0.0000   -0.0000    0.0000
    6 O2     1s         0.9980   -0.0000   -0.0637   -0.0265    0.0000   -0.0094   -0.0014    0.0000   -0.0000    0.0095
    7 O2     2s         0.0006   -0.0000   -0.0010    0.6121   -0.0000   -0.6200   -0.0295    0.0000   -0.0000    0.1174
    8 O2     2px        0.0006   -0.0000   -0.0001    0.0363   -0.0000    0.0257    0.6847    0.0000    0.0000   -0.7731
    9 O2     2py        0.0000    0.0006   -0.0000   -0.0000   -0.3189    0.0000   -0.0000    0.5528   -0.0791    0.0000
   10 O2     2pz        0.0000   -0.0000   -0.0000    0.0000   -0.0000   -0.0000    0.0000    0.0000   -0.0000    0.0000
   11 O3     1s         0.0448    0.7071    0.7057   -0.0143   -0.0145    0.0143   -0.0027    0.0258   -0.0035    0.0011
   12 O3     2s        -0.0004    0.0001   -0.0001    0.3538    0.5584    0.6363   -0.0443    0.4181   -0.0513    0.0022
   13 O3     2px       -0.0001   -0.0001   -0.0001   -0.0106   -0.0069    0.0246    0.3811    0.1265    0.7027    0.6226
   14 O3     2py       -0.0001    0.0012    0.0011    0.1105    0.1012   -0.1882    0.0666   -0.4432    0.1270   -0.0394
   15 O3     2pz       -0.0000    0.0000    0.0000   -0.0000    0.0000    0.0000    0.0000    0.0000    0.0000    0.0000
 
 
      Orbital               11        12        13        14        15
      Energy            0.0000    0.0000    0.0000    0.1097    0.5778
      Occ. No.          1.9815    1.7035    0.3150    0.0000    0.0000
 
    1 O1     1s        -0.0000    0.0000   -0.0000   -0.0165   -0.0561
    2 O1     2s        -0.0000    0.0000   -0.0000   -0.2437   -0.5116
    3 O1     2px       -0.0000    0.0000   -0.0000   -0.0005    0.0777
    4 O1     2py        0.0000   -0.0000   -0.0000    0.7558    0.6746
    5 O1     2pz        0.2995   -0.7161    0.6666    0.0000   -0.0000
    6 O2     1s         0.0000    0.0000    0.0000    0.0828   -0.0000
    7 O2     2s         0.0000   -0.0000   -0.0000    0.8911   -0.0000
    8 O2     2px       -0.0000   -0.0000    0.0000    0.1738    0.0000
    9 O2     2py        0.0000   -0.0000    0.0000    0.0000    1.1275
   10 O2     2pz        0.7859    0.0000   -0.6908   -0.0000   -0.0000
   11 O3     1s         0.0000   -0.0000   -0.0000   -0.0165    0.0561
   12 O3     2s         0.0000   -0.0000    0.0000   -0.2437    0.5116
   13 O3     2px       -0.0000   -0.0000   -0.0000   -0.0005   -0.0777
   14 O3     2py        0.0000    0.0000    0.0000   -0.7558    0.6746
   15 O3     2pz        0.2995    0.7161    0.6666    0.0000   -0.0000
--
 
      Von Neumann Entropy (Root  1) =  0.63046
 

      Mulliken population analysis for root number:  1
      -----------------------------------------------
 
 
++    Molecular charges:
      ------------------
 
      Mulliken charges per centre and basis function type
      ---------------------------------------------------
 
                O1      O2      O3    
      1s       2.0001  2.0001  2.0001
      2s       1.9130  1.5989  1.9130
      2px      1.9954  1.9668  1.9954
      2pz      1.2451  1.5097  1.2451
      2py      0.7995  1.0181  0.7995
      Total    7.9532  8.0936  7.9532
 
      N-E      0.0468 -0.0936  0.0468
 
      Total electronic charge=   24.000000
 
      Total            charge=   -0.000000
--
 
 

      Expectation values of various properties for root number:  1
      -----------------------------------------------------------
 
 
++    Molecular properties:
      ---------------------
 
      Charge (e):
                      =   -0.0000
      Dipole Moment (Debye):
      Origin of the operator (Ang)=    0.0000    0.0000    0.0000
                   X=  2.6264E-01               Y= -3.7149E-12               Z= -5.7618E-14           Total=  2.6264E-01
      Quadrupole Moment (Debye*Ang):
      Origin of the operator (Ang)=    0.0780    0.0000    0.0000
                  XX= -1.7435E+01              XY= -3.7484E-13              XZ= -1.2136E-13              YY= -1.6682E+01
                  YZ= -1.2586E-13              ZZ= -1.5676E+01
      In traceless form (Debye*Ang)
                  XX= -1.2562E+00              XY= -5.6226E-13              XZ= -1.8204E-13              YY= -1.2609E-01
                  YZ= -1.8878E-13              ZZ=  1.3823E+00
--
 

      LoProp population analysis for root number:  1
      -----------------------------------------------
 
 
++    LoProp analysis:
      ----------------
 
 
 
  Input file to MOLDEN was generated!
 
 
++    Static properties:
      ------------------
 
 
      LoProp Charges per center
 

                   O1       O2       O3    
      Nuclear      8.0000   8.0000   8.0000
      Electronic  -7.9914  -8.0172  -7.9914
 
      Total        0.0086  -0.0172   0.0086
--
 
 
      Natural Bond Order analysis for root number:  1
 
++    Natural Bond Order analysis
      ---------------------------
      Based on LoProp computed density
      -------------------------------------------------------------------------------------
      Atom A       Atom B       Bond Order | Atom A       Atom B       Bond Order
        O1           O2             1.962  |   O2           O3             1.962
      -------------------------------------------------------------------------------------
      NBO located     12.000 core electrons.
      NBO located      3.968 lone pair electrons.
      NBO located      7.849 electrons involved in    2 bonds.
      The remaining    0.183 electrons are to be considered as diffuse
--
 
--
 
 
  Input file to MOLDEN was generated!
 
      Average orbitals are written to the RASORB file
      Natural orbitals for root   1 are written to the RASORB.1 file
      Spin density orbitals for root   1 are written to the SPDORB.1 file
 
--- Stop Module: rasscf at Wed Nov 13 12:08:35 2024 /rc=_RC_ALL_IS_WELL_ ---
*** files: ozone_169.50.LprOrb ozone_169.50.rasscf.molden ozone_169.50.LoProp.molden ozone_169.50.RasOrb ozone_169.50.RasOrb.1 ozone_169.50.rasscf.h5 ozone_169.50.SpdOrb.1 xmldump
    saved to directory /home/grierjones/DDCASPT2/ozone/ANO-RCC-MB/ozone_169.50

>>> COPY /tmp/ozone_169.50/ozone_169.50.rasscf.h5 /home/grierjones/DDCASPT2/ozone/ANO-RCC-MB/ozone_169.50/

>>> COPY /tmp/ozone_169.50/GMJ_Fock_MO.csv /home/grierjones/DDCASPT2/ozone/ANO-RCC-MB/ozone_169.50/ozone_169.50.GMJ_Fock_MO.csv

>>> COPY /tmp/ozone_169.50/GMJ_PT2_Fock_MO.csv /home/grierjones/DDCASPT2/ozone/ANO-RCC-MB/ozone_169.50/ozone_169.50.GMJ_PT2_Fock_MO.csv

*** symbolic link created: INPORB -> ozone_169.50.RasOrb
--- Start Module: motra at Wed Nov 13 12:08:35 2024 ---
 
()()()()()()()()()()()()()()()()()()()()()()()()()()()()()()()()()()()()()()()()()()()()()()()()()()

                                               &MOTRA

                                   only a single process is used
                       available to each process: 2.0 GB of memory, 1 thread?
()()()()()()()()()()()()()()()()()()()()()()()()()()()()()()()()()()()()()()()()()()()()()()()()()()
 
 
      *** WARNING: Default frozen orbitals is overwritten by user input.
      *** Default values:   3
 
      Header of the integral files:
      
       Integrals generated by seward 4.2.0  , Wed Nov 13 12:08:34 2024
 
 
      Header of MO coefficients source file:
      * RASSCF average (pseudo-natural) orbitals                                      
 
 
      Cartesian coordinates in Angstrom:
      -----------------------------------------------------
      No.  Label        X            Y            Z        
      -----------------------------------------------------
       1   O1         0.11693900   1.27263900   0.00000000
       2   O2         0.00000000   0.00000000   0.00000000
       3   O3         0.11693900  -1.27263900   0.00000000
      -----------------------------------------------------
      Nuclear repulsion energy =   66.30647204
 
      Orbital specifications:
      -----------------------
 
      Symmetry species:              1
      Number of basis functions:    15
      Frozen orbitals:               0
      Deleted orbitals:              0
      Number of orbitals used:      15

       SYMMETRY  BASIS FUNCTIONS       ORBITALS      INTEGRALS   CPU(SEC)  I/O(SEC)
 
        1 1 1 1   15  15  15  15    15  15  15  15        7260       0.00      0.00

       TOTAL CPU TIME(SEC)    0.00TOTAL I/O TIME(SEC)    0.01
 
--- Stop Module: motra at Wed Nov 13 12:08:35 2024 /rc=_RC_ALL_IS_WELL_ ---
*** files: xmldump
    saved to directory /home/grierjones/DDCASPT2/ozone/ANO-RCC-MB/ozone_169.50

>>> COPY /tmp/ozone_169.50/GMJ_one_int_indx.csv /home/grierjones/DDCASPT2/ozone/ANO-RCC-MB/ozone_169.50/ozone_169.50.GMJ_one_int_indx.csv

>>> COPY /tmp/ozone_169.50/GMJ_one_int.csv /home/grierjones/DDCASPT2/ozone/ANO-RCC-MB/ozone_169.50/ozone_169.50.GMJ_one_int.csv

>>> COPY /tmp/ozone_169.50/GMJ_two_int_indx.csv /home/grierjones/DDCASPT2/ozone/ANO-RCC-MB/ozone_169.50/ozone_169.50.GMJ_two_int_indx.csv

>>> COPY /tmp/ozone_169.50/GMJ_two_int.csv /home/grierjones/DDCASPT2/ozone/ANO-RCC-MB/ozone_169.50/ozone_169.50.GMJ_two_int.csv

*** symbolic link created: INPORB -> ozone_169.50.RasOrb
--- Start Module: caspt2 at Wed Nov 13 12:08:35 2024 ---
 
()()()()()()()()()()()()()()()()()()()()()()()()()()()()()()()()()()()()()()()()()()()()()()()()()()

                                              &CASPT2

                                   only a single process is used
                       available to each process: 2.0 GB of memory, 1 thread?
()()()()()()()()()()()()()()()()()()()()()()()()()()()()()()()()()()()()()()()()()()()()()()()()()()
 
 Cholesky algorithm in CASPT2 =    1
 
 ###############################################################################
 ###############################################################################
 ###                                                                         ###
 ###                                                                         ###
 ###    User changed nr of frozen orbitals.                                  ###
 ###                                                                         ###
 ###                                                                         ###
 ###############################################################################
 ###############################################################################
 
++    Wave function specifications:
      -----------------------------
 
      Number of closed shell electrons          20
      Number of electrons in active shells       4
      Max number of holes in RAS1 space          0
      Max number of electrons in RAS3 space      0
      Number of inactive orbitals               10
      Number of active orbitals                  3
      Number of secondary orbitals               2
      Spin quantum number                      0.0
      State symmetry                             1
      Number of CSFs                             6
      Number of root(s) available                1
      Root passed to geometry opt.               1
      A file JOBMIX will be created.
      This is a CASSCF or RASSCF reference function
--
 
++    Orbital specifications:
      -----------------------
 
      Symmetry species                           1
                                                 a
      Frozen orbitals                            0
      Inactive orbitals                         10
      Active orbitals                            3
      Secondary orbitals                         2
      Deleted orbitals                           0
      Number of basis functions                 15
--
 
      Type of Fock operator: STANDARD
      Type of 0-order Hamiltonian: STANDARD WITH DEFAULT IPEA
        "IP-EA" denominator shift =      0.25
      The input orbitals and the CI vector will be transformed.
 
--------------------------------------------------------------------------------
 Estimated memory requirements:
  POLY3 :                   250202
  RHS:                      251368
  SIGMA :                   251440
  PRPCTL:                        0
 Available workspace:    230399382
 
++ CASPT2 computation for group   1
 
********************************************************************************
 Multi-State initialization phase begins for group   1
--------------------------------------------------------------------------------
********************************************************************************
 Compute H0 matrices for state    1
--------------------------------------------------------------------------------
--------------------------------------------------------------------------------
 H0 matrices have been computed.
 
********************************************************************************
  CASPT2 EQUATION SOLUTION
--------------------------------------------------------------------------------
 
  Total nr of CASPT2 parameters:
   Before reduction:        2100
   After  reduction:        1232
 
 The contributions to the second order correlation energy in atomic units.
-----------------------------------------------------------------------------------------------------------------------------
  IT.      VJTU        VJTI        ATVX        AIVX        VJAI        BVAT        BJAT        BJAI        TOTAL       RNORM  
-----------------------------------------------------------------------------------------------------------------------------
-------------------------------------------------------------------------------------------------------------------
 
  FINAL CASPT2 RESULT:
 
  Correlation energy /Case, /Symm, and sums:
 VJTU     -0.00000000 -0.00000000
 VJTIP    -0.00121885 -0.00121885
 VJTIM     0.00000000  0.00000000
 ATVX     -0.00000000 -0.00000000
 AIVX     -0.05277074 -0.05277074
 VJAIP    -0.00000000 -0.00000000
 VJAIM    -0.00000000 -0.00000000
 BVATP    -0.00060953 -0.00060953
 BVATM    -0.00000433 -0.00000433
 BJATP    -0.00000000 -0.00000000
 BJATM    -0.00000000 -0.00000000
 BJAIP    -0.03588424 -0.03588424
 BJAIM    -0.00649393 -0.00649393
 Summed:  -0.09698163 -0.09698163
 
      Reference energy:        -224.2792317380
      E2 (Non-variational):      -0.0969816263
      E2 (Variational):          -0.0969816263
      Total energy:            -224.3762133643
      Residual norm:              0.0000000000
      Reference weight:           0.95294
 
      Contributions to the CASPT2 correlation energy
      Active & Virtual Only:         -0.0006138622
      One Inactive Excited:          -0.0527707440
      Two Inactive Excited:          -0.0435970202
 
 
++ Denominators, etc.
----------------------------------------------------------------------------------------------------
 Report on small energy denominators, large coefficients, and large energy contributions.
CASE  SYMM ACTIVE-MIX  NON-ACTIVE INDICES          DENOMINATOR     RHS VALUE       COEFFICIENT     CONTRIBUTION
AIVX     1  Mu1.0005  In1.004 Se1.014               2.55388366     -0.08489611      0.03324198     -0.00282211
AIVX     1  Mu1.0003  In1.005 Se1.014               2.01091585     -0.05494122      0.02732149     -0.00150108
AIVX     1  Mu1.0004  In1.006 Se1.014               1.78204995     -0.07508436      0.04213375     -0.00316359
AIVX     1  Mu1.0005  In1.006 Se1.014               1.93609044      0.07377329     -0.03810429     -0.00281108
AIVX     1  Mu1.0002  In1.008 Se1.014               1.21196566      0.11860280     -0.09785987     -0.01160645
AIVX     1  Mu1.0003  In1.008 Se1.014               1.30502262      0.07040452     -0.05394889     -0.00379825
AIVX     1  Mu1.0007  In1.008 Se1.014               1.90761221     -0.05292078      0.02774190     -0.00146812
AIVX     1  Mu1.0002  In1.009 Se1.014               1.09009022     -0.03226618      0.02959955     -0.00095506
AIVX     1  Mu1.0004  In1.005 Se1.015               2.65657170     -0.07229562      0.02721389     -0.00196745
AIVX     1  Mu1.0001  In1.008 Se1.015               1.31264834      0.03584929     -0.02731017     -0.00097905
AIVX     1  Mu1.0004  In1.008 Se1.015               1.95067846      0.12674873     -0.06497679     -0.00823573
AIVX     1  Mu1.0005  In1.008 Se1.015               2.10471895     -0.08619466      0.04095308     -0.00352994
BJAIP    1  Se1.014 In1.004 Se1.015 In1.005         3.90299978     -0.10034666      0.02571014     -0.00257993
BJAIP    1  Se1.014 In1.006 Se1.014 In1.006         2.41068482      0.08198915     -0.03401072     -0.00278851
BJAIP    1  Se1.014 In1.004 Se1.015 In1.008         3.19710654      0.08106866     -0.02535688     -0.00205565
BJAIP    1  Se1.014 In1.006 Se1.015 In1.008         2.57931333     -0.09726210      0.03770851     -0.00366761
BJAIP    1  Se1.014 In1.008 Se1.014 In1.008         1.81163193      0.10876742     -0.06003836     -0.00653022
BJAIP    1  Se1.015 In1.008 Se1.015 In1.008         2.74794184      0.11217028     -0.04081972     -0.00457876
BJAIP    1  Se1.014 In1.010 Se1.014 In1.010         1.24775670      0.03164842     -0.02536425     -0.00080274
BJAIM    1  Se1.014 In1.006 Se1.014 In1.008         2.57931333     -0.09997173      0.03875902     -0.00387481
--
 
   (Skipping property calculation,
    use PROP keyword to activate)
--
 
  Total CASPT2 energies:
::    CASPT2 Root  1     Total energy:   -224.37621336
 
  A NEW JOBIPH FILE NAMED 'JOBMIX' IS PREPARED.
********************************************************************************
--- Stop Module: caspt2 at Wed Nov 13 12:08:35 2024 /rc=_RC_ALL_IS_WELL_ ---
*** files: xmldump
    saved to directory /home/grierjones/DDCASPT2/ozone/ANO-RCC-MB/ozone_169.50

>>> EXPORT i = B

>>> EXPORT j = P

>>> IF (-FILE GMJ_e2_${i}_${j}.csv)

>>> COPY /tmp/ozone_169.50/GMJ_RHS_B_P.csv /home/grierjones/DDCASPT2/ozone/ANO-RCC-MB/ozone_169.50/GMJ_RHS_B_P.csv

>>> COPY /tmp/ozone_169.50/GMJ_IVECW_B_P.csv /home/grierjones/DDCASPT2/ozone/ANO-RCC-MB/ozone_169.50/GMJ_IVECW_B_P.csv

>>> COPY /tmp/ozone_169.50/GMJ_IVECX_B_P.csv /home/grierjones/DDCASPT2/ozone/ANO-RCC-MB/ozone_169.50/GMJ_IVECX_B_P.csv

>>> COPY /tmp/ozone_169.50/GMJ_IVECC2_B_P.csv /home/grierjones/DDCASPT2/ozone/ANO-RCC-MB/ozone_169.50/GMJ_IVECC2_B_P.csv

>>> COPY /tmp/ozone_169.50/GMJ_e2_B_P.csv /home/grierjones/DDCASPT2/ozone/ANO-RCC-MB/ozone_169.50/GMJ_e2_B_P.csv

>>> END FOREACH

>>> EXPORT j = M

>>> IF (-FILE GMJ_e2_${i}_${j}.csv)
(Skipped)

>>> END FOREACH

>>> END FOREACH

>>> EXPORT i = E

>>> EXPORT j = P

>>> IF (-FILE GMJ_e2_${i}_${j}.csv)

>>> COPY /tmp/ozone_169.50/GMJ_RHS_E_P.csv /home/grierjones/DDCASPT2/ozone/ANO-RCC-MB/ozone_169.50/GMJ_RHS_E_P.csv

>>> COPY /tmp/ozone_169.50/GMJ_IVECW_E_P.csv /home/grierjones/DDCASPT2/ozone/ANO-RCC-MB/ozone_169.50/GMJ_IVECW_E_P.csv

>>> COPY /tmp/ozone_169.50/GMJ_IVECX_E_P.csv /home/grierjones/DDCASPT2/ozone/ANO-RCC-MB/ozone_169.50/GMJ_IVECX_E_P.csv

>>> COPY /tmp/ozone_169.50/GMJ_IVECC2_E_P.csv /home/grierjones/DDCASPT2/ozone/ANO-RCC-MB/ozone_169.50/GMJ_IVECC2_E_P.csv

>>> COPY /tmp/ozone_169.50/GMJ_e2_E_P.csv /home/grierjones/DDCASPT2/ozone/ANO-RCC-MB/ozone_169.50/GMJ_e2_E_P.csv

>>> END FOREACH

>>> EXPORT j = M

>>> IF (-FILE GMJ_e2_${i}_${j}.csv)

>>> COPY /tmp/ozone_169.50/GMJ_RHS_E_M.csv /home/grierjones/DDCASPT2/ozone/ANO-RCC-MB/ozone_169.50/GMJ_RHS_E_M.csv

>>> COPY /tmp/ozone_169.50/GMJ_IVECW_E_M.csv /home/grierjones/DDCASPT2/ozone/ANO-RCC-MB/ozone_169.50/GMJ_IVECW_E_M.csv

>>> COPY /tmp/ozone_169.50/GMJ_IVECX_E_M.csv /home/grierjones/DDCASPT2/ozone/ANO-RCC-MB/ozone_169.50/GMJ_IVECX_E_M.csv

>>> COPY /tmp/ozone_169.50/GMJ_IVECC2_E_M.csv /home/grierjones/DDCASPT2/ozone/ANO-RCC-MB/ozone_169.50/GMJ_IVECC2_E_M.csv

>>> COPY /tmp/ozone_169.50/GMJ_e2_E_M.csv /home/grierjones/DDCASPT2/ozone/ANO-RCC-MB/ozone_169.50/GMJ_e2_E_M.csv

>>> END FOREACH

>>> END FOREACH

>>> EXPORT i = F

>>> EXPORT j = P

>>> IF (-FILE GMJ_e2_${i}_${j}.csv)

>>> COPY /tmp/ozone_169.50/GMJ_RHS_F_P.csv /home/grierjones/DDCASPT2/ozone/ANO-RCC-MB/ozone_169.50/GMJ_RHS_F_P.csv

>>> COPY /tmp/ozone_169.50/GMJ_IVECW_F_P.csv /home/grierjones/DDCASPT2/ozone/ANO-RCC-MB/ozone_169.50/GMJ_IVECW_F_P.csv

>>> COPY /tmp/ozone_169.50/GMJ_IVECX_F_P.csv /home/grierjones/DDCASPT2/ozone/ANO-RCC-MB/ozone_169.50/GMJ_IVECX_F_P.csv

>>> COPY /tmp/ozone_169.50/GMJ_IVECC2_F_P.csv /home/grierjones/DDCASPT2/ozone/ANO-RCC-MB/ozone_169.50/GMJ_IVECC2_F_P.csv

>>> COPY /tmp/ozone_169.50/GMJ_e2_F_P.csv /home/grierjones/DDCASPT2/ozone/ANO-RCC-MB/ozone_169.50/GMJ_e2_F_P.csv

>>> END FOREACH

>>> EXPORT j = M

>>> IF (-FILE GMJ_e2_${i}_${j}.csv)

>>> COPY /tmp/ozone_169.50/GMJ_RHS_F_M.csv /home/grierjones/DDCASPT2/ozone/ANO-RCC-MB/ozone_169.50/GMJ_RHS_F_M.csv

>>> COPY /tmp/ozone_169.50/GMJ_IVECW_F_M.csv /home/grierjones/DDCASPT2/ozone/ANO-RCC-MB/ozone_169.50/GMJ_IVECW_F_M.csv

>>> COPY /tmp/ozone_169.50/GMJ_IVECX_F_M.csv /home/grierjones/DDCASPT2/ozone/ANO-RCC-MB/ozone_169.50/GMJ_IVECX_F_M.csv

>>> COPY /tmp/ozone_169.50/GMJ_IVECC2_F_M.csv /home/grierjones/DDCASPT2/ozone/ANO-RCC-MB/ozone_169.50/GMJ_IVECC2_F_M.csv

>>> COPY /tmp/ozone_169.50/GMJ_e2_F_M.csv /home/grierjones/DDCASPT2/ozone/ANO-RCC-MB/ozone_169.50/GMJ_e2_F_M.csv

>>> END FOREACH

>>> END FOREACH

>>> EXPORT i = G

>>> EXPORT j = P

>>> IF (-FILE GMJ_e2_${i}_${j}.csv)

>>> COPY /tmp/ozone_169.50/GMJ_RHS_G_P.csv /home/grierjones/DDCASPT2/ozone/ANO-RCC-MB/ozone_169.50/GMJ_RHS_G_P.csv

>>> COPY /tmp/ozone_169.50/GMJ_IVECW_G_P.csv /home/grierjones/DDCASPT2/ozone/ANO-RCC-MB/ozone_169.50/GMJ_IVECW_G_P.csv

>>> COPY /tmp/ozone_169.50/GMJ_IVECX_G_P.csv /home/grierjones/DDCASPT2/ozone/ANO-RCC-MB/ozone_169.50/GMJ_IVECX_G_P.csv

>>> COPY /tmp/ozone_169.50/GMJ_IVECC2_G_P.csv /home/grierjones/DDCASPT2/ozone/ANO-RCC-MB/ozone_169.50/GMJ_IVECC2_G_P.csv

>>> COPY /tmp/ozone_169.50/GMJ_e2_G_P.csv /home/grierjones/DDCASPT2/ozone/ANO-RCC-MB/ozone_169.50/GMJ_e2_G_P.csv

>>> END FOREACH

>>> EXPORT j = M

>>> IF (-FILE GMJ_e2_${i}_${j}.csv)

>>> COPY /tmp/ozone_169.50/GMJ_RHS_G_M.csv /home/grierjones/DDCASPT2/ozone/ANO-RCC-MB/ozone_169.50/GMJ_RHS_G_M.csv

>>> COPY /tmp/ozone_169.50/GMJ_IVECW_G_M.csv /home/grierjones/DDCASPT2/ozone/ANO-RCC-MB/ozone_169.50/GMJ_IVECW_G_M.csv

>>> COPY /tmp/ozone_169.50/GMJ_IVECX_G_M.csv /home/grierjones/DDCASPT2/ozone/ANO-RCC-MB/ozone_169.50/GMJ_IVECX_G_M.csv

>>> COPY /tmp/ozone_169.50/GMJ_IVECC2_G_M.csv /home/grierjones/DDCASPT2/ozone/ANO-RCC-MB/ozone_169.50/GMJ_IVECC2_G_M.csv

>>> COPY /tmp/ozone_169.50/GMJ_e2_G_M.csv /home/grierjones/DDCASPT2/ozone/ANO-RCC-MB/ozone_169.50/GMJ_e2_G_M.csv

>>> END FOREACH

>>> END FOREACH

>>> EXPORT i = H

>>> EXPORT j = P

>>> IF (-FILE GMJ_e2_${i}_${j}.csv)

>>> COPY /tmp/ozone_169.50/GMJ_RHS_H_P.csv /home/grierjones/DDCASPT2/ozone/ANO-RCC-MB/ozone_169.50/GMJ_RHS_H_P.csv

>>> COPY /tmp/ozone_169.50/GMJ_IVECW_H_P.csv /home/grierjones/DDCASPT2/ozone/ANO-RCC-MB/ozone_169.50/GMJ_IVECW_H_P.csv

>>> COPY /tmp/ozone_169.50/GMJ_IVECX_H_P.csv /home/grierjones/DDCASPT2/ozone/ANO-RCC-MB/ozone_169.50/GMJ_IVECX_H_P.csv

>>> COPY /tmp/ozone_169.50/GMJ_IVECC2_H_P.csv /home/grierjones/DDCASPT2/ozone/ANO-RCC-MB/ozone_169.50/GMJ_IVECC2_H_P.csv

>>> COPY /tmp/ozone_169.50/GMJ_e2_H_P.csv /home/grierjones/DDCASPT2/ozone/ANO-RCC-MB/ozone_169.50/GMJ_e2_H_P.csv

>>> END FOREACH

>>> EXPORT j = M

>>> IF (-FILE GMJ_e2_${i}_${j}.csv)

>>> COPY /tmp/ozone_169.50/GMJ_RHS_H_M.csv /home/grierjones/DDCASPT2/ozone/ANO-RCC-MB/ozone_169.50/GMJ_RHS_H_M.csv

>>> COPY /tmp/ozone_169.50/GMJ_IVECW_H_M.csv /home/grierjones/DDCASPT2/ozone/ANO-RCC-MB/ozone_169.50/GMJ_IVECW_H_M.csv

>>> COPY /tmp/ozone_169.50/GMJ_IVECX_H_M.csv /home/grierjones/DDCASPT2/ozone/ANO-RCC-MB/ozone_169.50/GMJ_IVECX_H_M.csv

>>> COPY /tmp/ozone_169.50/GMJ_IVECC2_H_M.csv /home/grierjones/DDCASPT2/ozone/ANO-RCC-MB/ozone_169.50/GMJ_IVECC2_H_M.csv

>>> COPY /tmp/ozone_169.50/GMJ_e2_H_M.csv /home/grierjones/DDCASPT2/ozone/ANO-RCC-MB/ozone_169.50/GMJ_e2_H_M.csv

>>> END FOREACH

>>> END FOREACH

>>> EXPORT i = A

>>> IF (-FILE GMJ_e2_$i.csv)

>>> COPY /tmp/ozone_169.50/GMJ_RHS_A.csv /home/grierjones/DDCASPT2/ozone/ANO-RCC-MB/ozone_169.50/GMJ_RHS_A.csv

>>> COPY /tmp/ozone_169.50/GMJ_IVECW_A.csv /home/grierjones/DDCASPT2/ozone/ANO-RCC-MB/ozone_169.50/GMJ_IVECW_A.csv

>>> COPY /tmp/ozone_169.50/GMJ_IVECX_A.csv /home/grierjones/DDCASPT2/ozone/ANO-RCC-MB/ozone_169.50/GMJ_IVECX_A.csv

>>> COPY /tmp/ozone_169.50/GMJ_IVECC2_A.csv /home/grierjones/DDCASPT2/ozone/ANO-RCC-MB/ozone_169.50/GMJ_IVECC2_A.csv

>>> COPY /tmp/ozone_169.50/GMJ_e2_A.csv /home/grierjones/DDCASPT2/ozone/ANO-RCC-MB/ozone_169.50/GMJ_e2_A.csv

>>> END FOREACH

>>> EXPORT i = C

>>> IF (-FILE GMJ_e2_$i.csv)

>>> COPY /tmp/ozone_169.50/GMJ_RHS_C.csv /home/grierjones/DDCASPT2/ozone/ANO-RCC-MB/ozone_169.50/GMJ_RHS_C.csv

>>> COPY /tmp/ozone_169.50/GMJ_IVECW_C.csv /home/grierjones/DDCASPT2/ozone/ANO-RCC-MB/ozone_169.50/GMJ_IVECW_C.csv

>>> COPY /tmp/ozone_169.50/GMJ_IVECX_C.csv /home/grierjones/DDCASPT2/ozone/ANO-RCC-MB/ozone_169.50/GMJ_IVECX_C.csv

>>> COPY /tmp/ozone_169.50/GMJ_IVECC2_C.csv /home/grierjones/DDCASPT2/ozone/ANO-RCC-MB/ozone_169.50/GMJ_IVECC2_C.csv

>>> COPY /tmp/ozone_169.50/GMJ_e2_C.csv /home/grierjones/DDCASPT2/ozone/ANO-RCC-MB/ozone_169.50/GMJ_e2_C.csv

>>> END FOREACH

>>> EXPORT i = D

>>> IF (-FILE GMJ_e2_$i.csv)

>>> COPY /tmp/ozone_169.50/GMJ_RHS_D.csv /home/grierjones/DDCASPT2/ozone/ANO-RCC-MB/ozone_169.50/GMJ_RHS_D.csv

>>> COPY /tmp/ozone_169.50/GMJ_IVECW_D.csv /home/grierjones/DDCASPT2/ozone/ANO-RCC-MB/ozone_169.50/GMJ_IVECW_D.csv

>>> COPY /tmp/ozone_169.50/GMJ_IVECX_D.csv /home/grierjones/DDCASPT2/ozone/ANO-RCC-MB/ozone_169.50/GMJ_IVECX_D.csv

>>> COPY /tmp/ozone_169.50/GMJ_IVECC2_D.csv /home/grierjones/DDCASPT2/ozone/ANO-RCC-MB/ozone_169.50/GMJ_IVECC2_D.csv

>>> COPY /tmp/ozone_169.50/GMJ_e2_D.csv /home/grierjones/DDCASPT2/ozone/ANO-RCC-MB/ozone_169.50/GMJ_e2_D.csv

>>> END FOREACH

.########################.
.# Non-zero return code #.
.########################.

    Timing: Wall=1.06 User=0.79 System=0.27
********************************************
*** WorkDir at /tmp/ozone_169.50 cleaned ***
********************************************
