   This run of MOLCAS is using the pymolcas driver

                             OPE
                             OPE          NMOL  CASOP  ENMOLC A   SO
                 OPE        NMOLC        AS  OP EN  MO LC     AS  OP
                OPENM       OL CA        SO  PE NM  OL CA     SOP EN
                OP EN      MO   LC       AS  OP ENMOL  CASO   PENMOL
                OP  EN     MO   LC       AS  OP EN     MO     LC ASO
               OP   E  NMOL  C  AS       OP  EN MO     LC     AS  OP
               OP  E   NMO   LC AS        OPEN  MO     LCASOP EN   M
               O  PEN   MO  LCA  SO
            OPE   NMO   L   CAS    OP
        OPENMOL  CASOP     ENMOL   CASOPE
     OPENMOLCA   SOPENMOLCASOPEN   MOLCASOPE
    OPENMOLCAS   OP           EN   MOL    CAS
    OPENMOLCAS       OP  ENM        O     LCA
    OPENMOLCAS    OPEN  MOLCASO     P  E  NMO
    OPENMOLCAS     OP               E  N  MOL
    OPENMOLCA   SO           PENM   O  L  CAS    OPEN    MO    LCAS
    OPENMOLCA   SOP           ENM   O  L  CAS   OP  EN  MOLC  AS   O
    OPENMOLCA   SOPE           NM      O  LCA   S      OP  EN MO
    OPENMOLC                AS         O  PEN   M      OL  CA  SOPE
    OPENMO        LCASOPE  NMOL        C  ASO   P      ENMOLC     AS
    OPE     NMO      LCA  SO     P     E   NM   OL  CA SO  PE N   MO
          OPENMOLCA            SOPE   NMO        LCAS  O    P  ENMO
     OPENMOLCASOPENMOLCASOPENMOLCASOPENMOLCA
        OPENMOLCASOPENMOLCASOPENMOLCASOPE
            OPENMOLCASOPENMOLCASOPENM
               OPENMOLCASOPENMOLCA        version: 1d1d16313-dirty
                   OPENMOLCASO
                       OPE                tag:

 OpenMolcas is free software; you can redistribute it and/or modify it
 under the terms of the GNU Lesser General Public License version 2.1.
 OpenMolcas is distributed in the hope that it will be useful, but it
 is provided "as is" and without any express or implied warranties.
 For more details see the full text of the license in the file
 LICENSE or in <http://www.gnu.org/licenses/>.

                 Copyright (C) The OpenMolcas Authors
           For the author list and the recommended citation,
                   consult the file CONTRIBUTORS.md

           *************************************************
           * pymolcas version py2.28                       *
           *   build c4a6d18ded8cb6cad61d2372a9abd97c      *
           *   (after the EMIL interpreter by V. Veryazov) *
           *************************************************

configuration info
------------------
C Compiler ID: IntelLLVM
C flags: -std=gnu99
Fortran Compiler ID: IntelLLVM
Fortran flags: -standard-semantics -fltconsistency -fpp -i8 -heap-arrays
Definitions: _MOLCAS_;_I8_;_LINUX_
Parallel: OFF (GA=OFF)


   ------------------------------------------------------------------------------
  |
  |              Project: ozone_106.25
  |       Submitted from: /home/grierjones/DDCASPT2/ozone/ANO-RCC-MB/ozone_106.25
  |         Scratch area: /tmp/ozone_106.25
  |      Save outputs to: /home/grierjones/DDCASPT2/ozone/ANO-RCC-MB/ozone_106.25
  |               Molcas: /home/grierjones/Test/build
  |
  | Scratch area is empty
  |
  |       MOLCAS_DRIVER = /usr/local/pymolcas
  | MOLCAS_KEEP_WORKDIR = NO
  |  MOLCAS_NEW_WORKDIR = YES
  |       MOLCAS_NPROCS = 1
  |        MOLCAS_PRINT = NORMAL
  |       MOLCAS_SOURCE = /home/grierjones/Test
  |    MOLCAS_STRUCTURE = 0
  |
   ------------------------------------------------------------------------------

++ ---------   Input file   ---------

&GATEWAY
coord=ozone_106.25.xyz
Basis = ANO-RCC-MB
Group = nosymm
Expert
End of Input

&SEWARD
End of Input

&SCF

>>> COPY $WorkDir/ozone_106.25.scf.h5 $CurrDir/

&RASSCF
Title= RASSCF
FileOrb
/home/grierjones/DDCASPT2/ozone/ANO-RCC-MB/ozone_106.00/ozone_106.00.RasOrb
NACTEL
4 0 0
Inactive
10
RAS2
3
Symmetry
1
Spin
1
orblisting
all
ITERation
300 200

>>> COPY $WorkDir/ozone_106.25.rasscf.h5 $CurrDir/

>>> COPY $WorkDir/GMJ_Fock_MO.csv $CurrDir/ozone_106.25.GMJ_Fock_MO.csv

>>> COPY $WorkDir/GMJ_PT2_Fock_MO.csv $CurrDir/ozone_106.25.GMJ_PT2_Fock_MO.csv

&MOTRA
Frozen=0
LUMORB

>>> COPY $WorkDir/GMJ_one_int_indx.csv $CurrDir/ozone_106.25.GMJ_one_int_indx.csv

>>> COPY $WorkDir/GMJ_one_int.csv $CurrDir/ozone_106.25.GMJ_one_int.csv

>>> COPY $WorkDir/GMJ_two_int_indx.csv $CurrDir/ozone_106.25.GMJ_two_int_indx.csv

>>> COPY $WorkDir/GMJ_two_int.csv $CurrDir/ozone_106.25.GMJ_two_int.csv

&CASPT2
Frozen
0
MAXITER
50

>>> FOREACH i IN (B,E,F,G,H)

  >>> FOREACH j IN (P,M)

    >>> IF (-FILE GMJ_e2_${i}_${j}.csv)

      >>> COPY $WorkDir/GMJ_RHS_${i}_${j}.csv $CurrDir/GMJ_RHS_${i}_${j}.csv

      >>> COPY $WorkDir/GMJ_IVECW_${i}_${j}.csv $CurrDir/GMJ_IVECW_${i}_${j}.csv

      >>> COPY $WorkDir/GMJ_IVECX_${i}_${j}.csv $CurrDir/GMJ_IVECX_${i}_${j}.csv

      >>> COPY $WorkDir/GMJ_IVECC2_${i}_${j}.csv $CurrDir/GMJ_IVECC2_${i}_${j}.csv

      >>> COPY $WorkDir/GMJ_e2_${i}_${j}.csv $CurrDir/GMJ_e2_${i}_${j}.csv

    >>> END IF

  >>> END FOREACH

>>> END FOREACH

>>> FOREACH i IN (A,C,D)

  >>> IF (-FILE GMJ_e2_$i.csv)

    >>> COPY $WorkDir/GMJ_RHS_$i.csv $CurrDir/GMJ_RHS_$i.csv

    >>> COPY $WorkDir/GMJ_IVECW_$i.csv $CurrDir/GMJ_IVECW_$i.csv

    >>> COPY $WorkDir/GMJ_IVECX_$i.csv $CurrDir/GMJ_IVECX_$i.csv

    >>> COPY $WorkDir/GMJ_IVECC2_$i.csv $CurrDir/GMJ_IVECC2_$i.csv

    >>> COPY $WorkDir/GMJ_e2_$i.csv $CurrDir/GMJ_e2_$i.csv

  >>> END IF

>>> END FOREACH

-- ----------------------------------

--- Start Module: gateway at Sat Jan 25 14:00:39 2025 ---
 
()()()()()()()()()()()()()()()()()()()()()()()()()()()()()()()()()()()()()()()()()()()()()()()()()()

                                              &GATEWAY

                                   only a single process is used
                       available to each process: 2.0 GB of memory, 1 thread?
()()()()()()()()()()()()()()()()()()()()()()()()()()()()()()()()()()()()()()()()()()()()()()()()()()
 
 ###############################################################################
 ###############################################################################
 ###                                                                         ###
 ###                                                                         ###
 ###                                                                         ###
 ###    WARNING: EXPERT option is ON!                                        ###
 ###                                                                         ###
 ###                                                                         ###
 ###############################################################################
 ###############################################################################
 
++    Symmetry information:
      ---------------------
 
                    Character Table for C1 
 
                             E  
                    a        1  x, y, xy, Rz, z, xz, Ry, yz, Rx, I
--
 
 
++    Basis set information:
      ----------------------
 
 
      Basis set label: O.ANO-RCC...2S1P.
 
      Electronic valence basis set:
      ------------------
      Associated Effective Charge   8.000000 au
      Associated Actual Charge      8.000000 au
      Nuclear Model: Point charge
 
      Shell  nPrim  nBasis  Cartesian Spherical Contaminant
         s      14       2        X                  
         p       9       1        X                  
--
 
 
++    Molecular structure info:
      -------------------------
 
                    ************************************************ 
                    **** Cartesian Coordinates / Bohr, Angstrom **** 
                    ************************************************ 
 
     Center  Label                x              y              z                     x              y              z
        1      O1               1.449214       1.931927       0.000000              0.766891       1.022332       0.000000
        2      O2               0.000000       0.000000       0.000000              0.000000       0.000000       0.000000
        3      O3               1.449214      -1.931927       0.000000              0.766891      -1.022332       0.000000
 
                    *************************************** 
                    *    InterNuclear Distances / Bohr    * 
                    *************************************** 
 
               1 O1            2 O2            3 O3    
    1 O1       0.000000
    2 O2       2.415070        0.000000
    3 O3       3.863855        2.415070        0.000000
 
                    ******************************************* 
                    *    InterNuclear Distances / Angstrom    * 
                    ******************************************* 
 
               1 O1            2 O2            3 O3    
    1 O1       0.000000
    2 O2       1.278000        0.000000
    3 O3       2.044664        1.278000        0.000000
 
                    ************************************** 
                    *    Valence Bond Angles / Degree    * 
                    ************************************** 
                          Atom centers                 Phi
                      1 O1       2 O2       3 O3       106.25
--
 
 
            Nuclear Potential Energy             69.56429456 au
 
 ###############################################################################
 ###############################################################################
 ###                                                                         ###
 ###                                                                         ###
 ###    There were warnings during the execution                             ###
 ###    Please, check the output with care!                                  ###
 ###                                                                         ###
 ###                                                                         ###
 ###############################################################################
 ###############################################################################
--- Stop Module: gateway at Sat Jan 25 14:00:39 2025 /rc=_RC_ALL_IS_WELL_ ---
*** files: xmldump
    saved to directory /home/grierjones/DDCASPT2/ozone/ANO-RCC-MB/ozone_106.25

--- Start Module: seward at Sat Jan 25 14:00:39 2025 ---
 
()()()()()()()()()()()()()()()()()()()()()()()()()()()()()()()()()()()()()()()()()()()()()()()()()()

                                              &SEWARD

                                   only a single process is used
                       available to each process: 2.0 GB of memory, 1 thread?
()()()()()()()()()()()()()()()()()()()()()()()()()()()()()()()()()()()()()()()()()()()()()()()()()()
 
 ###############################################################################
 ###############################################################################
 ###                                                                         ###
 ###                                                                         ###
 ###                                                                         ###
 ###    WARNING: EXPERT option is ON!                                        ###
 ###                                                                         ###
 ###                                                                         ###
 ###############################################################################
 ###############################################################################
               SEWARD will generate:
                  Multipole Moment integrals up to order  2
                  Kinetic Energy integrals
                  Nuclear Attraction integrals (point charge)
                  One-Electron Hamiltonian integrals
                  Velocity integrals
                  Relativistic Douglas-Kroll-Hess integrals:
                    - Parametrization         : EXP
                    - DKH order of Hamiltonian: 2
                    - DKH order of Properties : 0
                         - multipole moment operators
                         - electric potential operators
                         - contact operators
                  Atomic mean-field integrals
                  Two-Electron Repulsion integrals
 
                   Integrals are discarded if absolute value <: 0.10E-13
                   Integral cutoff threshold is set to       <: 0.10E-15
 
            Nuclear Potential Energy             69.56429456 au
 
 
      Basis set specifications :
      Symmetry species         a  
      Basis functions           15
 
 
  Input file to MOLDEN was generated!
 
 ###############################################################################
 ###############################################################################
 ###                                                                         ###
 ###                                                                         ###
 ###    There were warnings during the execution                             ###
 ###    Please, check the output with care!                                  ###
 ###                                                                         ###
 ###                                                                         ###
 ###############################################################################
 ###############################################################################
forrtl: warning (525): IEEE_DIVIDE_BY_ZERO is signaling
forrtl: warning (526): IEEE_INVALID is signaling
forrtl: warning (528): IEEE_UNDERFLOW is signaling
--- Stop Module: seward at Sat Jan 25 14:00:39 2025 /rc=_RC_ALL_IS_WELL_ ---
*** files: ozone_106.25.GssOrb ozone_106.25.guessorb.h5 ozone_106.25.guessorb.molden xmldump
    saved to directory /home/grierjones/DDCASPT2/ozone/ANO-RCC-MB/ozone_106.25

*** symbolic link created: INPORB -> ozone_106.25.GssOrb
--- Start Module: scf at Sat Jan 25 14:00:39 2025 ---
 
()()()()()()()()()()()()()()()()()()()()()()()()()()()()()()()()()()()()()()()()()()()()()()()()()()

                                                &SCF

                                   only a single process is used
                       available to each process: 2.0 GB of memory, 1 thread?
()()()()()()()()()()()()()()()()()()()()()()()()()()()()()()()()()()()()()()()()()()()()()()()()()()
 
++    Input section:
      --------------
 
      Header of the integral files:
      
       Integrals generated by seward 4.2.0  , Sat Jan 25 14:00:39 2025
 
 
      Cartesian coordinates in Angstrom:
      -----------------------------------------------------
      No.  Label        X            Y            Z        
      -----------------------------------------------------
       1   O1         0.76689100   1.02233200   0.00000000
       2   O2         0.00000000   0.00000000   0.00000000
       3   O3         0.76689100  -1.02233200   0.00000000
      -----------------------------------------------------
      Nuclear repulsion energy =   69.56429456
--
 
++    Orbital specifications:
      -----------------------
 
      Symmetry species               1
                                     a
      Frozen orbitals                0
      Occupied orbitals             12
      Secondary orbitals             3
      Deleted orbitals               0
      Total number of orbitals      15
      Number of basis functions     15
--
 
      Molecular charge                           0.000
 
++    Optimization specifications:
      ----------------------------
 
      SCF Algorithm: Conventional
      Minimized density differences are used
      Number of density matrices in core                5
      Maximum number of NDDO SCF iterations           400
      Maximum number of HF SCF iterations             400
      Threshold for SCF energy change            0.10E-08
      Threshold for density matrix               0.10E-03
      Threshold for Fock matrix                  0.15E-03
      Threshold for linear dependence            0.10E-08
      Threshold at which DIIS is turned on       0.15E+00
      Threshold at which QNR/C2DIIS is turned on 0.75E-01
      Threshold for Norm(delta) (QNR/C2DIIS)     0.20E-04
      DIIS extrapolation of the SCF procedure
      All orbitals punched on: SCFORB
--
 
      Input vectors read from INPORB
      Orbital file label: *Guess orbitals
 
 
++ Convergence information
                                   SCF        iterations: Energy and convergence statistics
 
Iter     Tot. SCF        One-elec.       Two-elec.     Energy      Max Dij or  Max Fij      DNorm      TNorm      AccCon     Time
         Energy          Energy          Energy        Change      Delta Norm                                                in Sec.
   1  -223.846913363  -442.886351231   149.475143310   0.00E+00    0.66E+00*   0.28E+00*    0.74E+01   0.50E+02   None         0.
   2  -224.124184407  -445.798900621   152.110421656  -0.28E+00*   0.43E+00*   0.15E+00*    0.25E+01   0.51E+02   EDIIS        0.
   3  -224.193937679  -444.497903526   150.739671289  -0.70E-01*   0.14E+00*   0.83E-01*    0.54E+00   0.50E+02   EDIIS        0.
   4  -224.229952826  -445.240151948   151.445904564  -0.36E-01*   0.11E-01*   0.24E-01*    0.95E-01   0.50E+02   c2DIIS       0.
   5  -224.235460611  -445.046820648   151.247065479  -0.55E-02*   0.37E-02*   0.22E-02*    0.13E-01   0.50E+02   QNRc2DIIS    0.
   6  -224.235497809  -445.050066990   151.250274623  -0.37E-04*   0.47E-02*   0.11E-02*    0.59E-02   0.50E+02   QNRc2DIIS    0.
   7  -224.235514437  -445.048853622   151.249044626  -0.17E-04*   0.62E-03*   0.66E-03*    0.36E-02   0.50E+02   QNRc2DIIS    0.
   8  -224.235515590  -445.050495985   151.250685837  -0.12E-05*   0.72E-03*   0.20E-03*    0.20E-03   0.50E+02   QNRc2DIIS    0.
   9  -224.235516077  -445.049972404   151.250161768  -0.49E-06*   0.50E-04*   0.27E-04     0.45E-04   0.50E+02   QNRc2DIIS    0.
  10  -224.235516081  -445.050038573   151.250227934  -0.36E-08*   0.58E-05    0.34E-05     0.10E-02   0.50E+02   QNRc2DIIS    0.
  11  -224.235516081  -445.050033336   151.250222697  -0.82E-10    0.48E-05    0.15E-05     0.45E-03   0.50E+02   QNRc2DIIS    0.
 
       Convergence after 11 Macro Iterations
--
 
 *****************************************************************************************************************************
 *                                                                                                                           *
 *                                             SCF/KS-DFT Program, Final results                                             *
 *                                                                                                                           *
 *                                                                                                                           *
 *                                                                                                                           *
 *                                                       Final Results                                                       *
 *                                                                                                                           *
 *****************************************************************************************************************************
 
::    Total SCF energy                               -224.2355160810
      One-electron energy                            -445.0500333357
      Two-electron energy                             151.2502226966
      Nuclear repulsion energy                         69.5642945581
      Kinetic energy (interpolated)                   224.9581006948
      Virial theorem                                    0.9967879147
      Total spin, S(S+1)                                0.0000000000
      Total spin, S                                     0.0000000000
      Max non-diagonal density matrix element           0.0000064845
      Max non-diagonal Fock matrix element              0.0000014981
 
 
      All orbitals with orbital energies smaller than  E(LUMO)+0.5 are printed
 
++    Molecular orbitals:
      -------------------
 
      Title: SCF orbitals

      Molecular orbitals for symmetry species 1: a  
 
          Orbital            1         2         3         4         5         6         7         8         9        10    
          Energy          -21.0672  -20.7769  -20.7768   -1.8240   -1.4585   -1.1463   -0.8586   -0.8333   -0.8121   -0.6114
          Occ. No.          2.0000    2.0000    2.0000    2.0000    2.0000    2.0000    2.0000    2.0000    2.0000    2.0000
 
        1 O1     1s         0.0009   -0.7071    0.7071   -0.0209    0.0107    0.0070   -0.0204   -0.0000   -0.0232    0.0082
        2 O1     2s        -0.0005   -0.0004    0.0001    0.2785   -0.5860    0.5642   -0.3499   -0.0000   -0.4244    0.0723
        3 O1     2px       -0.0001    0.0008   -0.0008   -0.0662    0.0647    0.0941    0.0876   -0.0000   -0.3523    0.6142
        4 O1     2py        0.0002    0.0011   -0.0009   -0.0896    0.0880    0.0445   -0.3615    0.0000   -0.2113   -0.2271
        5 O1     2pz        0.0000   -0.0000   -0.0000   -0.0000    0.0000    0.0000    0.0000    0.3349   -0.0000   -0.0000
        6 O2     1s         1.0000   -0.0000   -0.0017   -0.0230    0.0000   -0.0165   -0.0084    0.0000    0.0000    0.0155
        7 O2     2s         0.0000   -0.0000   -0.0011    0.6446   -0.0000   -0.6844   -0.0910    0.0000    0.0000    0.1946
        8 O2     2px        0.0017   -0.0000   -0.0003    0.1764   -0.0000    0.2500    0.6743   -0.0000    0.0000   -0.5036
        9 O2     2py        0.0000    0.0006   -0.0000   -0.0000   -0.3330    0.0000   -0.0000    0.0000    0.6117   -0.0000
       10 O2     2pz        0.0000   -0.0000   -0.0000    0.0000   -0.0000    0.0000    0.0000    0.7435   -0.0000   -0.0000
       11 O3     1s         0.0009    0.7071    0.7071   -0.0209   -0.0107    0.0070   -0.0204    0.0000    0.0232    0.0082
       12 O3     2s        -0.0005    0.0004    0.0001    0.2785    0.5860    0.5642   -0.3499    0.0000    0.4244    0.0723
       13 O3     2px       -0.0001   -0.0008   -0.0008   -0.0662   -0.0647    0.0941    0.0876    0.0000    0.3523    0.6142
       14 O3     2py       -0.0002    0.0011    0.0009    0.0896    0.0880   -0.0445    0.3615   -0.0000   -0.2113    0.2271
       15 O3     2pz       -0.0000   -0.0000   -0.0000   -0.0000    0.0000    0.0000    0.0000    0.3349   -0.0000    0.0000
 
          Orbital           11        12        13        14        15    
          Energy           -0.5930   -0.5168   -0.1090    0.2845    0.3299
          Occ. No.          2.0000    2.0000    0.0000    0.0000    0.0000
 
        1 O1     1s         0.0008    0.0000   -0.0000   -0.0298   -0.0417
        2 O1     2s         0.0183    0.0000   -0.0000   -0.3301   -0.4076
        3 O1     2px       -0.4641   -0.0000    0.0000    0.3704    0.5127
        4 O1     2py        0.5911    0.0000   -0.0000    0.6292    0.4676
        5 O1     2pz        0.0000   -0.7284    0.6356   -0.0000   -0.0000
        6 O2     1s        -0.0000   -0.0000   -0.0000    0.0837   -0.0000
        7 O2     2s        -0.0000   -0.0000    0.0000    0.8211   -0.0000
        8 O2     2px        0.0000   -0.0000    0.0000    0.6741   -0.0000
        9 O2     2py       -0.1592   -0.0000    0.0000    0.0000    0.9639
       10 O2     2pz       -0.0000    0.0000   -0.7341   -0.0000   -0.0000
       11 O3     1s        -0.0008    0.0000   -0.0000   -0.0298    0.0417
       12 O3     2s        -0.0183    0.0000   -0.0000   -0.3301    0.4076
       13 O3     2px        0.4641   -0.0000   -0.0000    0.3704   -0.5127
       14 O3     2py        0.5911   -0.0000   -0.0000   -0.6292    0.4676
       15 O3     2pz        0.0000    0.7284    0.6356    0.0000    0.0000
--
 
 
++    Molecular charges:
      ------------------
 
      Mulliken charges per centre and basis function type
      ---------------------------------------------------
 
                O1      O2      O3    
      1s       2.0001  2.0001  2.0001
      2s       1.9184  1.7923  1.9184
      2px      1.5354  1.6020  1.5354
      2pz      1.3422  1.3155  1.3422
      2py      1.2678  1.1622  1.2678
      Total    8.0639  7.8721  8.0639
 
      N-E     -0.0639  0.1279 -0.0639
 
      Total electronic charge=   24.000000
 
      Total            charge=   -0.000000
--
 
 
  Input file to MOLDEN was generated!
 
 
++    Static properties:
      ------------------
 
 
      LoProp Charges per center
 

                   O1       O2       O3    
      Nuclear      8.0000   8.0000   8.0000
      Electronic  -8.1132  -7.7735  -8.1132
 
      Total       -0.1132   0.2265  -0.1132
--
 
 
++    Natural Bond Order analysis
      ---------------------------
      Based on LoProp computed density
      -------------------------------------------------------------------------------------
      Atom A       Atom B       Bond Order | Atom A       Atom B       Bond Order
        O1           O2             2.000  |   O2           O3             2.000
      -------------------------------------------------------------------------------------
      NBO located     12.000 core electrons.
      NBO located      3.964 lone pair electrons.
      NBO located      8.000 electrons involved in    2 bonds.
      The remaining    0.036 electrons are to be considered as diffuse
--
 
 
++    Molecular properties:
      ---------------------
 
      Charge (e):
                      =   -0.0000
      Dipole Moment (Debye):
      Origin of the operator (Ang)=    0.0000    0.0000    0.0000
                   X= -4.1799E-01               Y= -4.3006E-12               Z= -1.5361E-13           Total=  4.1799E-01
      Quadrupole Moment (Debye*Ang):
      Origin of the operator (Ang)=    0.5113    0.0000    0.0000
                  XX= -1.7128E+01              XY=  1.3135E-12              XZ= -1.3058E-13              YY= -1.8514E+01
                  YZ= -2.0500E-13              ZZ= -1.5692E+01
      In traceless form (Debye*Ang)
                  XX= -2.5053E-02              XY=  1.9702E-12              XZ= -1.9587E-13              YY= -2.1037E+00
                  YZ= -3.0750E-13              ZZ=  2.1287E+00
--
 
 
  Input file to MOLDEN was generated!
 
 ###############################################################################
 ###############################################################################
 ###                                                                         ###
 ###                                                                         ###
 ###    RunFile label nBas                                                   ###
 ###    was used       78 times                                              ###
 ###                                                                         ###
 ###                                                                         ###
 ###############################################################################
 ###############################################################################
forrtl: warning (528): IEEE_UNDERFLOW is signaling
--- Stop Module: scf at Sat Jan 25 14:00:39 2025 /rc=_RC_ALL_IS_WELL_ ---
*** files: ozone_106.25.LprOrb ozone_106.25.LoProp.molden ozone_106.25.scf.molden ozone_106.25.ScfOrb ozone_106.25.scf.h5 xmldump
    saved to directory /home/grierjones/DDCASPT2/ozone/ANO-RCC-MB/ozone_106.25

>>> COPY /tmp/ozone_106.25/ozone_106.25.scf.h5 /home/grierjones/DDCASPT2/ozone/ANO-RCC-MB/ozone_106.25/

*** symbolic link created: INPORB -> ozone_106.25.ScfOrb
--- Start Module: rasscf at Sat Jan 25 14:00:39 2025 ---
 
()()()()()()()()()()()()()()()()()()()()()()()()()()()()()()()()()()()()()()()()()()()()()()()()()()

                                              &RASSCF

                                   only a single process is used
                       available to each process: 2.0 GB of memory, 1 thread?
()()()()()()()()()()()()()()()()()()()()()()()()()()()()()()()()()()()()()()()()()()()()()()()()()()
 
 
 *************** WARNING ****************
 ###############################################################################
 ###############################################################################
 ###                                                                         ###
 ###                                                                         ###
 ###    Too many macro-iterations.                                           ###
 ###                                                                         ###
 ###                                                                         ###
 ###############################################################################
 ###############################################################################
 Too many macro-iterations requested.
 Reset to maximum, new MAXIT=     200
 ****************************************
 
 *************** WARNING ****************
 ###############################################################################
 ###############################################################################
 ###                                                                         ###
 ###                                                                         ###
 ###    Too many SX-iterations.                                              ###
 ###                                                                         ###
 ###                                                                         ###
 ###############################################################################
 ###############################################################################
 Too many SX-iterations requested.
 Reset to maximum, new ITMAX=     100
 ****************************************
 
      Header of the ONEINT file:
      --------------------------
      
      Integrals generated by seward 4.2.0  , Sat Jan 25 14:00:39 2025
 
 
      OrdInt status: non-squared
 
 
      Cartesian coordinates in Angstrom:
      -----------------------------------------------------
      No.  Label        X            Y            Z        
      -----------------------------------------------------
       1   O1         0.76689100   1.02233200   0.00000000
       2   O2         0.00000000   0.00000000   0.00000000
       3   O3         0.76689100  -1.02233200   0.00000000
      -----------------------------------------------------
      Nuclear repulsion energy =   69.56429456
 
++    Wave function specifications:
      -----------------------------
 
      Number of closed shell electrons          20
      Number of electrons in active shells       4
      Max number of holes in RAS1 space          0
      Max nr of electrons in RAS3 space          0
      Number of inactive orbitals               10
      Number of active orbitals                  3
      Number of secondary orbitals               2
      Spin quantum number                      0.0
      State symmetry                             1
--
 
++    Orbital specifications:
      -----------------------
 
      Symmetry species                           1
                                                 a
      Frozen orbitals                            0
      Inactive orbitals                         10
      Active orbitals                            3
      RAS1 orbitals                              0
      RAS2 orbitals                              3
      RAS3 orbitals                              0
      Secondary orbitals                         2
      Deleted orbitals                           0
      Number of basis functions                 15
--
 
++    CI expansion specifications:
      ----------------------------
 
      Number of CSFs                             6
      Number of determinants                     6
      Number of root(s) required                 1
      Root chosen for geometry opt.              1
      CI root used                               1
         
      highest root included in the CI            1
      max. size of the explicit Hamiltonian      6
--
 
++    Optimization specifications:
      ----------------------------
 
      RASSCF algorithm: Conventional
      Maximum number of macro iterations       200
      Maximum number of SX iterations          100
      Threshold for RASSCF energy            0.100E-07
      Threshold for max MO rotation          0.100E+00
      Threshold for max BLB element          0.100E-03
      Level shift parameter                  0.500E+00
      Make Quasi-Newton update
--
 
      The MO-coefficients are taken from the file:
      /home/grierjones/DDCASPT2/ozone/ANO-RCC-MB/ozone_106.00/ozone_106.00.RasOrb                                                     
      Title: RASSCF average (pseudo-natural) orbitals                                      
 
      Total molecular charge    0.00
 
      ************************************************************************************************************************
      *                                                                                                                      *
      *                                            Wave function control section                                             *
      *                                                                                                                      *
      ************************************************************************************************************************
 
 
                                         RASSCF iterations: Energy and convergence statistics
                                         ----------------------------------------------------
 
      Iter CI   SX   CI       RASSCF       Energy    max ROT     max BLB   max BLB  Level Ln srch  Step   QN   Walltime
          iter iter root      energy       change     param      element    value   shift minimum  type update hh:mm:ss
 Nr of preliminary CI iterations:   1
        1   1    4    1  -224.36019308    0.00E+00  -0.62E-03    7  14 1 -0.17E-02*  0.22   0.00    SX    NO    0:00:00
        2   1    3    1  -224.36019708   -0.40E-05*  0.35E-03    7  14 1 -0.85E-03*  0.22   0.00    SX    NO    0:00:00
        3   1    3    1  -224.36019844   -0.14E-05* -0.21E-03    9  15 1  0.50E-03*  0.22   0.00    SX    NO    0:00:00
        4   1    3    1  -224.36019893   -0.50E-06*  0.13E-03    9  15 1  0.31E-03*  0.22   0.00    SX    NO    0:00:00
        5   1    3    1  -224.36019912   -0.18E-06*  0.20E-03    9  15 1  0.20E-03*  0.22   2.50    LS   YES    0:00:00
        6   1    3    1  -224.36019923   -0.11E-06* -0.27E-04    6  14 1  0.27E-04   0.22   1.06    QN   YES    0:00:00
        7   1    3    1  -224.36019923   -0.13E-08  -0.29E-04    7  14 1  0.17E-04   0.22   1.43    QN   YES    0:00:00
      Convergence after  7 iterations
 
  Dmat in MO in SXCTL bf call to SXHAM                                                                                    
  mat. size =     3x    3
 
        1.9940348839608726
       -0.0000000000923193      1.4529090876458950
        0.0002716496931726     -0.0000000000666668      0.5530560283932309
        8   1    3    1  -224.36019923   -0.36E-09  -0.29E-04    8  15 1 -0.49E-05   0.22   1.43    QN   YES    0:00:00
 
      ************************************************************************************************************************
                                                      Wave function printout:
                       occupation of active orbitals, and spin coupling of open shells (u,d: Spin up or down)
      ************************************************************************************************************************
 
      Note: transformation to natural orbitals
      has been made, which may change the order of the CSFs.
 
      printout of CI-coefficients larger than  0.05 for root  1
      energy=    -224.360199
      conf/sym  111     Coeff  Weight
             1  220  -0.85057 0.72347
             3  202   0.52302 0.27355
             6  022   0.05461 0.00298
 
      Natural orbitals and occupation numbers for root  1
      sym 1:   1.994035   1.452909   0.553056
 
      ************************************************************************************************************************
      *                                                                                                                      *
      *                                                    Final results                                                     *
      *                                                                                                                      *
      ************************************************************************************************************************
 
 
++    Wave function specifications:
      -----------------------------
 
      Number of closed shell electrons          20
      Number of electrons in active shells       4
      Max number of holes in RAS1 space          0
      Max nr of electrons in RAS3 space          0
      Number of inactive orbitals               10
      Number of active orbitals                  3
      Number of secondary orbitals               2
      Spin quantum number                      0.0
      State symmetry                             1
--
 
++    Orbital specifications:
      -----------------------
 
      Symmetry species                           1
                                                 a
      Frozen orbitals                            0
      Inactive orbitals                         10
      Active orbitals                            3
      RAS1 orbitals                              0
      RAS2 orbitals                              3
      RAS3 orbitals                              0
      Secondary orbitals                         2
      Deleted orbitals                           0
      Number of basis functions                 15
--
 
++    CI expansion specifications:
      ----------------------------
 
      Number of CSFs                             6
      Number of determinants                     6
      Number of root(s) required                 1
      CI root used                               1
      highest root included in the CI            1
      Root passed to geometry opt.               1
--
 
++    Final optimization conditions:
      ------------------------------
 
      Average CI energy                            -224.36019923
      RASSCF energy for state  1                   -224.36019923
      Super-CI energy                                -0.00000000
      RASSCF energy change                           -0.00000000
      Max change in MO coefficients              -0.235E-04
      Max non-diagonal density matrix element    -0.294E-04
      Maximum BLB matrix element                 -0.488E-05
      (orbital pair   8,  15 in symmetry   1)
      Norm of electronic gradient            0.734E-05
--
 
 
      Final state energy(ies):
      ------------------------
 
::    RASSCF root number  1 Total energy:   -224.36019923
 
++    Molecular orbitals:
      -------------------
 
      Pseudonatural active orbitals and approximate occupation numbers
 
 
 
 
      Molecular orbitals for symmetry species 1: a  
 
 
      Orbital                1         2         3         4         5         6         7         8         9        10
      Energy          -20.9329  -20.8092  -20.8091   -1.7924   -1.4535   -1.1300   -0.8326   -0.8005   -0.6100   -0.6059
      Occ. No.          2.0000    2.0000    2.0000    2.0000    2.0000    2.0000    2.0000    2.0000    2.0000    2.0000
 
    1 O1     1s         0.0020   -0.7071    0.7071   -0.0200    0.0088    0.0097   -0.0171   -0.0204    0.0004    0.0086
    2 O1     2s        -0.0006   -0.0003    0.0000    0.3090   -0.6110    0.5802   -0.2736   -0.3703    0.0171    0.0689
    3 O1     2px       -0.0000    0.0007   -0.0008   -0.0696    0.0635    0.1171    0.1579   -0.4037   -0.4428    0.6117
    4 O1     2py        0.0003    0.0011   -0.0009   -0.0986    0.0879    0.0778   -0.4116   -0.2326    0.6073   -0.1483
    5 O1     2pz       -0.0000    0.0000   -0.0000   -0.0000    0.0000    0.0000   -0.0000    0.0000    0.0000   -0.0000
    6 O2     1s         1.0000   -0.0000   -0.0032   -0.0255    0.0000   -0.0130   -0.0115    0.0000   -0.0000    0.0218
    7 O2     2s         0.0005   -0.0000   -0.0011    0.5997   -0.0000   -0.6828   -0.1611    0.0000   -0.0000    0.2857
    8 O2     2px        0.0020   -0.0000   -0.0002    0.1724   -0.0000    0.1674    0.5890    0.0000    0.0000   -0.5581
    9 O2     2py       -0.0000    0.0005   -0.0000   -0.0000   -0.2871    0.0000   -0.0000    0.5463   -0.1529   -0.0000
   10 O2     2pz       -0.0000    0.0000    0.0000    0.0000    0.0000    0.0000    0.0000    0.0000    0.0000   -0.0000
   11 O3     1s         0.0020    0.7071    0.7071   -0.0200   -0.0088    0.0097   -0.0171    0.0204   -0.0004    0.0086
   12 O3     2s        -0.0006    0.0003    0.0000    0.3090    0.6110    0.5802   -0.2736    0.3703   -0.0171    0.0689
   13 O3     2px       -0.0000   -0.0007   -0.0008   -0.0696   -0.0635    0.1171    0.1579    0.4037    0.4428    0.6117
   14 O3     2py       -0.0003    0.0011    0.0009    0.0986    0.0879   -0.0778    0.4116   -0.2326    0.6073    0.1483
   15 O3     2pz        0.0000    0.0000    0.0000    0.0000    0.0000   -0.0000    0.0000    0.0000    0.0000    0.0000
 
 
      Orbital               11        12        13        14        15
      Energy            0.0000    0.0000    0.0000    0.2927    0.3609
      Occ. No.          1.9940    1.4529    0.5531    0.0000    0.0000
 
    1 O1     1s         0.0000    0.0000   -0.0000   -0.0316   -0.0436
    2 O1     2s         0.0000    0.0000   -0.0000   -0.3476   -0.4234
    3 O1     2px        0.0000   -0.0000    0.0000    0.3431    0.4934
    4 O1     2py       -0.0000    0.0000   -0.0000    0.6172    0.4356
    5 O1     2pz        0.2077   -0.7284    0.6878   -0.0000   -0.0000
    6 O2     1s         0.0000   -0.0000   -0.0000    0.0816   -0.0000
    7 O2     2s         0.0000   -0.0000   -0.0000    0.8190   -0.0000
    8 O2     2px       -0.0000    0.0000    0.0000    0.7350   -0.0000
    9 O2     2py        0.0000   -0.0000    0.0000    0.0000    1.0174
   10 O2     2pz        0.8698   -0.0000   -0.5790    0.0000    0.0000
   11 O3     1s        -0.0000    0.0000    0.0000   -0.0316    0.0436
   12 O3     2s        -0.0000    0.0000    0.0000   -0.3476    0.4234
   13 O3     2px       -0.0000   -0.0000   -0.0000    0.3431   -0.4934
   14 O3     2py       -0.0000   -0.0000   -0.0000   -0.6172    0.4356
   15 O3     2pz        0.2077    0.7284    0.6878    0.0000   -0.0000
--
 
      Von Neumann Entropy (Root  1) =  0.85205
 

      Mulliken population analysis for root number:  1
      -----------------------------------------------
 
 
++    Molecular charges:
      ------------------
 
      Mulliken charges per centre and basis function type
      ---------------------------------------------------
 
                O1      O2      O3    
      1s       2.0001  2.0002  2.0001
      2s       1.9082  1.7819  1.9082
      2px      1.6063  1.4839  1.6063
      2pz      1.1236  1.7529  1.1236
      2py      1.3533  0.9980  1.3533
      Total    7.9916  8.0169  7.9916
 
      N-E      0.0084 -0.0169  0.0084
 
      Total electronic charge=   24.000000
 
      Total            charge=   -0.000000
--
 
 

      Expectation values of various properties for root number:  1
      -----------------------------------------------------------
 
 
++    Molecular properties:
      ---------------------
 
      Charge (e):
                      =   -0.0000
      Dipole Moment (Debye):
      Origin of the operator (Ang)=    0.0000    0.0000    0.0000
                   X=  1.3982E-01               Y=  1.3545E-14               Z=  3.8275E-10           Total=  1.3982E-01
      Quadrupole Moment (Debye*Ang):
      Origin of the operator (Ang)=    0.5113    0.0000    0.0000
                  XX= -1.7433E+01              XY=  2.4627E-12              XZ= -4.4230E-09              YY= -1.7921E+01
                  YZ= -3.7873E-05              ZZ= -1.5425E+01
      In traceless form (Debye*Ang)
                  XX= -7.6016E-01              XY=  3.6941E-12              XZ= -6.6345E-09              YY= -1.4920E+00
                  YZ= -5.6810E-05              ZZ=  2.2522E+00
--
 

      LoProp population analysis for root number:  1
      -----------------------------------------------
 
 
++    LoProp analysis:
      ----------------
 
 
 
  Input file to MOLDEN was generated!
 
 
++    Static properties:
      ------------------
 
 
      LoProp Charges per center
 

                   O1       O2       O3    
      Nuclear      8.0000   8.0000   8.0000
      Electronic  -8.0230  -7.9540  -8.0230
 
      Total       -0.0230   0.0460  -0.0230
--
 
 
      Natural Bond Order analysis for root number:  1
 
++    Natural Bond Order analysis
      ---------------------------
      Based on LoProp computed density
      -------------------------------------------------------------------------------------
      Atom A       Atom B       Bond Order | Atom A       Atom B       Bond Order
        O1           O2             1.966  |   O2           O3             1.966
      -------------------------------------------------------------------------------------
      NBO located     12.000 core electrons.
      NBO located      3.960 lone pair electrons.
      NBO located      7.864 electrons involved in    2 bonds.
      The remaining    0.177 electrons are to be considered as diffuse
--
 
--
 
 
  Input file to MOLDEN was generated!
 
      Average orbitals are written to the RASORB file
      Natural orbitals for root   1 are written to the RASORB.1 file
      Spin density orbitals for root   1 are written to the SPDORB.1 file
 
forrtl: warning (525): IEEE_DIVIDE_BY_ZERO is signaling
forrtl: warning (526): IEEE_INVALID is signaling
forrtl: warning (528): IEEE_UNDERFLOW is signaling
--- Stop Module: rasscf at Sat Jan 25 14:00:40 2025 /rc=_RC_ALL_IS_WELL_ ---
*** files: ozone_106.25.LprOrb ozone_106.25.rasscf.molden ozone_106.25.LoProp.molden ozone_106.25.RasOrb ozone_106.25.RasOrb.1 ozone_106.25.rasscf.h5 ozone_106.25.SpdOrb.1 xmldump
    saved to directory /home/grierjones/DDCASPT2/ozone/ANO-RCC-MB/ozone_106.25

>>> COPY /tmp/ozone_106.25/ozone_106.25.rasscf.h5 /home/grierjones/DDCASPT2/ozone/ANO-RCC-MB/ozone_106.25/

>>> COPY /tmp/ozone_106.25/GMJ_Fock_MO.csv /home/grierjones/DDCASPT2/ozone/ANO-RCC-MB/ozone_106.25/ozone_106.25.GMJ_Fock_MO.csv

>>> COPY /tmp/ozone_106.25/GMJ_PT2_Fock_MO.csv /home/grierjones/DDCASPT2/ozone/ANO-RCC-MB/ozone_106.25/ozone_106.25.GMJ_PT2_Fock_MO.csv

*** symbolic link created: INPORB -> ozone_106.25.RasOrb
--- Start Module: motra at Sat Jan 25 14:00:40 2025 ---
 
()()()()()()()()()()()()()()()()()()()()()()()()()()()()()()()()()()()()()()()()()()()()()()()()()()

                                               &MOTRA

                                   only a single process is used
                       available to each process: 2.0 GB of memory, 1 thread?
()()()()()()()()()()()()()()()()()()()()()()()()()()()()()()()()()()()()()()()()()()()()()()()()()()
 
 
      *** WARNING: Default frozen orbitals is overwritten by user input.
      *** Default values:   3
 
      Header of the integral files:
      
       Integrals generated by seward 4.2.0  , Sat Jan 25 14:00:39 2025
 
 
      Header of MO coefficients source file:
      * RASSCF average (pseudo-natural) orbitals                                      
 
 
      Cartesian coordinates in Angstrom:
      -----------------------------------------------------
      No.  Label        X            Y            Z        
      -----------------------------------------------------
       1   O1         0.76689100   1.02233200   0.00000000
       2   O2         0.00000000   0.00000000   0.00000000
       3   O3         0.76689100  -1.02233200   0.00000000
      -----------------------------------------------------
      Nuclear repulsion energy =   69.56429456
 
      Orbital specifications:
      -----------------------
 
      Symmetry species:              1
      Number of basis functions:    15
      Frozen orbitals:               0
      Deleted orbitals:              0
      Number of orbitals used:      15

       SYMMETRY  BASIS FUNCTIONS       ORBITALS      INTEGRALS   CPU(SEC)  I/O(SEC)
 
        1 1 1 1   15  15  15  15    15  15  15  15        7260       0.00      0.00

       TOTAL CPU TIME(SEC)    0.01TOTAL I/O TIME(SEC)    0.01
 
--- Stop Module: motra at Sat Jan 25 14:00:40 2025 /rc=_RC_ALL_IS_WELL_ ---
*** files: xmldump
    saved to directory /home/grierjones/DDCASPT2/ozone/ANO-RCC-MB/ozone_106.25

>>> COPY /tmp/ozone_106.25/GMJ_one_int_indx.csv /home/grierjones/DDCASPT2/ozone/ANO-RCC-MB/ozone_106.25/ozone_106.25.GMJ_one_int_indx.csv

>>> COPY /tmp/ozone_106.25/GMJ_one_int.csv /home/grierjones/DDCASPT2/ozone/ANO-RCC-MB/ozone_106.25/ozone_106.25.GMJ_one_int.csv

>>> COPY /tmp/ozone_106.25/GMJ_two_int_indx.csv /home/grierjones/DDCASPT2/ozone/ANO-RCC-MB/ozone_106.25/ozone_106.25.GMJ_two_int_indx.csv

>>> COPY /tmp/ozone_106.25/GMJ_two_int.csv /home/grierjones/DDCASPT2/ozone/ANO-RCC-MB/ozone_106.25/ozone_106.25.GMJ_two_int.csv

*** symbolic link created: INPORB -> ozone_106.25.RasOrb
--- Start Module: caspt2 at Sat Jan 25 14:00:40 2025 ---
 
()()()()()()()()()()()()()()()()()()()()()()()()()()()()()()()()()()()()()()()()()()()()()()()()()()

                                              &CASPT2

                                   only a single process is used
                       available to each process: 2.0 GB of memory, 1 thread?
()()()()()()()()()()()()()()()()()()()()()()()()()()()()()()()()()()()()()()()()()()()()()()()()()()
 
 Cholesky algorithm in CASPT2 =    1
 
 ###############################################################################
 ###############################################################################
 ###                                                                         ###
 ###                                                                         ###
 ###    User changed nr of frozen orbitals.                                  ###
 ###                                                                         ###
 ###                                                                         ###
 ###############################################################################
 ###############################################################################
 
++    Wave function specifications:
      -----------------------------
 
      Number of closed shell electrons          20
      Number of electrons in active shells       4
      Max number of holes in RAS1 space          0
      Max number of electrons in RAS3 space      0
      Number of inactive orbitals               10
      Number of active orbitals                  3
      Number of secondary orbitals               2
      Spin quantum number                      0.0
      State symmetry                             1
      Number of CSFs                             6
      Number of root(s) available                1
      Root passed to geometry opt.               1
      A file JOBMIX will be created.
      This is a CASSCF or RASSCF reference function
--
 
++    Orbital specifications:
      -----------------------
 
      Symmetry species                           1
                                                 a
      Frozen orbitals                            0
      Inactive orbitals                         10
      Active orbitals                            3
      Secondary orbitals                         2
      Deleted orbitals                           0
      Number of basis functions                 15
--
 
      Type of Fock operator: STANDARD
      Type of 0-order Hamiltonian: STANDARD WITH DEFAULT IPEA
        "IP-EA" denominator shift =      0.25
      The input orbitals and the CI vector will be transformed.
 
--------------------------------------------------------------------------------
 Estimated memory requirements:
  POLY3 :                   250202
  RHS:                      251368
  SIGMA :                   251440
  PRPCTL:                        0
 Available workspace:    230399382
 
++ CASPT2 computation for group   1
 
********************************************************************************
 Multi-State initialization phase begins for group   1
--------------------------------------------------------------------------------
********************************************************************************
 Compute H0 matrices for state    1
--------------------------------------------------------------------------------
--------------------------------------------------------------------------------
 H0 matrices have been computed.
 
********************************************************************************
  CASPT2 EQUATION SOLUTION
--------------------------------------------------------------------------------
 
  Total nr of CASPT2 parameters:
   Before reduction:        2100
   After  reduction:        1232
 
 The contributions to the second order correlation energy in atomic units.
-----------------------------------------------------------------------------------------------------------------------------
  IT.      VJTU        VJTI        ATVX        AIVX        VJAI        BVAT        BJAT        BJAI        TOTAL       RNORM  
-----------------------------------------------------------------------------------------------------------------------------
-------------------------------------------------------------------------------------------------------------------
 
  FINAL CASPT2 RESULT:
 
  Correlation energy /Case, /Symm, and sums:
 VJTU     -0.00000000 -0.00000000
 VJTIP    -0.00058742 -0.00058742
 VJTIM     0.00000000  0.00000000
 ATVX     -0.00000000 -0.00000000
 AIVX     -0.04197051 -0.04197051
 VJAIP    -0.00000000 -0.00000000
 VJAIM    -0.00000000 -0.00000000
 BVATP    -0.00057594 -0.00057594
 BVATM    -0.00000002 -0.00000002
 BJATP    -0.00000000 -0.00000000
 BJATM    -0.00000000 -0.00000000
 BJAIP    -0.04473173 -0.04473173
 BJAIM    -0.00611264 -0.00611264
 Summed:  -0.09397827 -0.09397827
 
      Reference energy:        -224.3601992323
      E2 (Non-variational):      -0.0939782693
      E2 (Variational):          -0.0939782693
      Total energy:            -224.4541775016
      Residual norm:              0.0000000000
      Reference weight:           0.95478
 
      Contributions to the CASPT2 correlation energy
      Active & Virtual Only:         -0.0005759628
      One Inactive Excited:          -0.0419705136
      Two Inactive Excited:          -0.0514317929
 
 
++ Denominators, etc.
----------------------------------------------------------------------------------------------------
 Report on small energy denominators, large coefficients, and large energy contributions.
CASE  SYMM ACTIVE-MIX  NON-ACTIVE INDICES          DENOMINATOR     RHS VALUE       COEFFICIENT     CONTRIBUTION
AIVX     1  Mu1.0003  In1.005 Se1.014               1.98514679      0.05513919     -0.02777587     -0.00153154
AIVX     1  Mu1.0001  In1.007 Se1.014               1.04859276      0.02892266     -0.02758246     -0.00079776
AIVX     1  Mu1.0004  In1.007 Se1.014               1.56889232     -0.04043331      0.02577184     -0.00104204
AIVX     1  Mu1.0005  In1.007 Se1.014               1.67225928     -0.07093920      0.04242117     -0.00300932
AIVX     1  Mu1.0002  In1.008 Se1.014               1.25857066     -0.05436451      0.04319544     -0.00234830
AIVX     1  Mu1.0002  In1.009 Se1.014               1.06806038      0.03856250     -0.03610517     -0.00139231
AIVX     1  Mu1.0003  In1.009 Se1.014               1.14163359      0.02916676     -0.02554826     -0.00074516
AIVX     1  Mu1.0005  In1.010 Se1.014               1.44559561      0.04615229     -0.03192614     -0.00147346
AIVX     1  Mu1.0001  In1.008 Se1.015               1.08469903      0.04224696     -0.03894829     -0.00164545
AIVX     1  Mu1.0004  In1.008 Se1.015               1.60499859     -0.05875306      0.03660623     -0.00215073
AIVX     1  Mu1.0005  In1.008 Se1.015               1.70836554     -0.10021087      0.05865891     -0.00587826
AIVX     1  Mu1.0006  In1.008 Se1.015               1.86931530      0.07017998     -0.03754314     -0.00263478
AIVX     1  Mu1.0002  In1.010 Se1.015               1.13219630      0.04790091     -0.04230796     -0.00202659
AIVX     1  Mu1.0003  In1.010 Se1.015               1.20576950      0.03261683     -0.02705063     -0.00088231
BJAIP    1  Se1.014 In1.007 Se1.014 In1.007         2.25058098      0.06581210     -0.02924228     -0.00192450
BJAIP    1  Se1.015 In1.005 Se1.015 In1.008         2.97579644     -0.07468705      0.02509817     -0.00187451
BJAIP    1  Se1.014 In1.007 Se1.015 In1.008         2.28668725      0.08564674     -0.03745451     -0.00320786
BJAIP    1  Se1.014 In1.008 Se1.014 In1.008         2.18639795      0.05949067     -0.02720944     -0.00161871
BJAIP    1  Se1.015 In1.008 Se1.015 In1.008         2.32279351      0.11928588     -0.05135449     -0.00612587
BJAIP    1  Se1.014 In1.008 Se1.015 In1.010         2.06002358     -0.09044578      0.04390521     -0.00397104
BJAIP    1  Se1.015 In1.010 Se1.015 In1.010         1.93364922      0.05580676     -0.02886085     -0.00161063
BJAIM    1  Se1.014 In1.007 Se1.014 In1.008         2.28668725      0.08580218     -0.03752249     -0.00321951
--
 
   (Skipping property calculation,
    use PROP keyword to activate)
--
 
  Total CASPT2 energies:
::    CASPT2 Root  1     Total energy:   -224.45417750
 
  A NEW JOBIPH FILE NAMED 'JOBMIX' IS PREPARED.
********************************************************************************
forrtl: warning (528): IEEE_UNDERFLOW is signaling
--- Stop Module: caspt2 at Sat Jan 25 14:00:40 2025 /rc=_RC_ALL_IS_WELL_ ---
*** files: xmldump
    saved to directory /home/grierjones/DDCASPT2/ozone/ANO-RCC-MB/ozone_106.25

>>> EXPORT i = B

>>> EXPORT j = P

>>> IF (-FILE GMJ_e2_${i}_${j}.csv)

>>> COPY /tmp/ozone_106.25/GMJ_RHS_B_P.csv /home/grierjones/DDCASPT2/ozone/ANO-RCC-MB/ozone_106.25/GMJ_RHS_B_P.csv

>>> COPY /tmp/ozone_106.25/GMJ_IVECW_B_P.csv /home/grierjones/DDCASPT2/ozone/ANO-RCC-MB/ozone_106.25/GMJ_IVECW_B_P.csv

>>> COPY /tmp/ozone_106.25/GMJ_IVECX_B_P.csv /home/grierjones/DDCASPT2/ozone/ANO-RCC-MB/ozone_106.25/GMJ_IVECX_B_P.csv

>>> COPY /tmp/ozone_106.25/GMJ_IVECC2_B_P.csv /home/grierjones/DDCASPT2/ozone/ANO-RCC-MB/ozone_106.25/GMJ_IVECC2_B_P.csv

>>> COPY /tmp/ozone_106.25/GMJ_e2_B_P.csv /home/grierjones/DDCASPT2/ozone/ANO-RCC-MB/ozone_106.25/GMJ_e2_B_P.csv

>>> END FOREACH

>>> EXPORT j = M

>>> IF (-FILE GMJ_e2_${i}_${j}.csv)
(Skipped)

>>> END FOREACH

>>> END FOREACH

>>> EXPORT i = E

>>> EXPORT j = P

>>> IF (-FILE GMJ_e2_${i}_${j}.csv)

>>> COPY /tmp/ozone_106.25/GMJ_RHS_E_P.csv /home/grierjones/DDCASPT2/ozone/ANO-RCC-MB/ozone_106.25/GMJ_RHS_E_P.csv

>>> COPY /tmp/ozone_106.25/GMJ_IVECW_E_P.csv /home/grierjones/DDCASPT2/ozone/ANO-RCC-MB/ozone_106.25/GMJ_IVECW_E_P.csv

>>> COPY /tmp/ozone_106.25/GMJ_IVECX_E_P.csv /home/grierjones/DDCASPT2/ozone/ANO-RCC-MB/ozone_106.25/GMJ_IVECX_E_P.csv

>>> COPY /tmp/ozone_106.25/GMJ_IVECC2_E_P.csv /home/grierjones/DDCASPT2/ozone/ANO-RCC-MB/ozone_106.25/GMJ_IVECC2_E_P.csv

>>> COPY /tmp/ozone_106.25/GMJ_e2_E_P.csv /home/grierjones/DDCASPT2/ozone/ANO-RCC-MB/ozone_106.25/GMJ_e2_E_P.csv

>>> END FOREACH

>>> EXPORT j = M

>>> IF (-FILE GMJ_e2_${i}_${j}.csv)

>>> COPY /tmp/ozone_106.25/GMJ_RHS_E_M.csv /home/grierjones/DDCASPT2/ozone/ANO-RCC-MB/ozone_106.25/GMJ_RHS_E_M.csv

>>> COPY /tmp/ozone_106.25/GMJ_IVECW_E_M.csv /home/grierjones/DDCASPT2/ozone/ANO-RCC-MB/ozone_106.25/GMJ_IVECW_E_M.csv

>>> COPY /tmp/ozone_106.25/GMJ_IVECX_E_M.csv /home/grierjones/DDCASPT2/ozone/ANO-RCC-MB/ozone_106.25/GMJ_IVECX_E_M.csv

>>> COPY /tmp/ozone_106.25/GMJ_IVECC2_E_M.csv /home/grierjones/DDCASPT2/ozone/ANO-RCC-MB/ozone_106.25/GMJ_IVECC2_E_M.csv

>>> COPY /tmp/ozone_106.25/GMJ_e2_E_M.csv /home/grierjones/DDCASPT2/ozone/ANO-RCC-MB/ozone_106.25/GMJ_e2_E_M.csv

>>> END FOREACH

>>> END FOREACH

>>> EXPORT i = F

>>> EXPORT j = P

>>> IF (-FILE GMJ_e2_${i}_${j}.csv)

>>> COPY /tmp/ozone_106.25/GMJ_RHS_F_P.csv /home/grierjones/DDCASPT2/ozone/ANO-RCC-MB/ozone_106.25/GMJ_RHS_F_P.csv

>>> COPY /tmp/ozone_106.25/GMJ_IVECW_F_P.csv /home/grierjones/DDCASPT2/ozone/ANO-RCC-MB/ozone_106.25/GMJ_IVECW_F_P.csv

>>> COPY /tmp/ozone_106.25/GMJ_IVECX_F_P.csv /home/grierjones/DDCASPT2/ozone/ANO-RCC-MB/ozone_106.25/GMJ_IVECX_F_P.csv

>>> COPY /tmp/ozone_106.25/GMJ_IVECC2_F_P.csv /home/grierjones/DDCASPT2/ozone/ANO-RCC-MB/ozone_106.25/GMJ_IVECC2_F_P.csv

>>> COPY /tmp/ozone_106.25/GMJ_e2_F_P.csv /home/grierjones/DDCASPT2/ozone/ANO-RCC-MB/ozone_106.25/GMJ_e2_F_P.csv

>>> END FOREACH

>>> EXPORT j = M

>>> IF (-FILE GMJ_e2_${i}_${j}.csv)

>>> COPY /tmp/ozone_106.25/GMJ_RHS_F_M.csv /home/grierjones/DDCASPT2/ozone/ANO-RCC-MB/ozone_106.25/GMJ_RHS_F_M.csv

>>> COPY /tmp/ozone_106.25/GMJ_IVECW_F_M.csv /home/grierjones/DDCASPT2/ozone/ANO-RCC-MB/ozone_106.25/GMJ_IVECW_F_M.csv

>>> COPY /tmp/ozone_106.25/GMJ_IVECX_F_M.csv /home/grierjones/DDCASPT2/ozone/ANO-RCC-MB/ozone_106.25/GMJ_IVECX_F_M.csv

>>> COPY /tmp/ozone_106.25/GMJ_IVECC2_F_M.csv /home/grierjones/DDCASPT2/ozone/ANO-RCC-MB/ozone_106.25/GMJ_IVECC2_F_M.csv

>>> COPY /tmp/ozone_106.25/GMJ_e2_F_M.csv /home/grierjones/DDCASPT2/ozone/ANO-RCC-MB/ozone_106.25/GMJ_e2_F_M.csv

>>> END FOREACH

>>> END FOREACH

>>> EXPORT i = G

>>> EXPORT j = P

>>> IF (-FILE GMJ_e2_${i}_${j}.csv)

>>> COPY /tmp/ozone_106.25/GMJ_RHS_G_P.csv /home/grierjones/DDCASPT2/ozone/ANO-RCC-MB/ozone_106.25/GMJ_RHS_G_P.csv

>>> COPY /tmp/ozone_106.25/GMJ_IVECW_G_P.csv /home/grierjones/DDCASPT2/ozone/ANO-RCC-MB/ozone_106.25/GMJ_IVECW_G_P.csv

>>> COPY /tmp/ozone_106.25/GMJ_IVECX_G_P.csv /home/grierjones/DDCASPT2/ozone/ANO-RCC-MB/ozone_106.25/GMJ_IVECX_G_P.csv

>>> COPY /tmp/ozone_106.25/GMJ_IVECC2_G_P.csv /home/grierjones/DDCASPT2/ozone/ANO-RCC-MB/ozone_106.25/GMJ_IVECC2_G_P.csv

>>> COPY /tmp/ozone_106.25/GMJ_e2_G_P.csv /home/grierjones/DDCASPT2/ozone/ANO-RCC-MB/ozone_106.25/GMJ_e2_G_P.csv

>>> END FOREACH

>>> EXPORT j = M

>>> IF (-FILE GMJ_e2_${i}_${j}.csv)

>>> COPY /tmp/ozone_106.25/GMJ_RHS_G_M.csv /home/grierjones/DDCASPT2/ozone/ANO-RCC-MB/ozone_106.25/GMJ_RHS_G_M.csv

>>> COPY /tmp/ozone_106.25/GMJ_IVECW_G_M.csv /home/grierjones/DDCASPT2/ozone/ANO-RCC-MB/ozone_106.25/GMJ_IVECW_G_M.csv

>>> COPY /tmp/ozone_106.25/GMJ_IVECX_G_M.csv /home/grierjones/DDCASPT2/ozone/ANO-RCC-MB/ozone_106.25/GMJ_IVECX_G_M.csv

>>> COPY /tmp/ozone_106.25/GMJ_IVECC2_G_M.csv /home/grierjones/DDCASPT2/ozone/ANO-RCC-MB/ozone_106.25/GMJ_IVECC2_G_M.csv

>>> COPY /tmp/ozone_106.25/GMJ_e2_G_M.csv /home/grierjones/DDCASPT2/ozone/ANO-RCC-MB/ozone_106.25/GMJ_e2_G_M.csv

>>> END FOREACH

>>> END FOREACH

>>> EXPORT i = H

>>> EXPORT j = P

>>> IF (-FILE GMJ_e2_${i}_${j}.csv)

>>> COPY /tmp/ozone_106.25/GMJ_RHS_H_P.csv /home/grierjones/DDCASPT2/ozone/ANO-RCC-MB/ozone_106.25/GMJ_RHS_H_P.csv

>>> COPY /tmp/ozone_106.25/GMJ_IVECW_H_P.csv /home/grierjones/DDCASPT2/ozone/ANO-RCC-MB/ozone_106.25/GMJ_IVECW_H_P.csv

>>> COPY /tmp/ozone_106.25/GMJ_IVECX_H_P.csv /home/grierjones/DDCASPT2/ozone/ANO-RCC-MB/ozone_106.25/GMJ_IVECX_H_P.csv

>>> COPY /tmp/ozone_106.25/GMJ_IVECC2_H_P.csv /home/grierjones/DDCASPT2/ozone/ANO-RCC-MB/ozone_106.25/GMJ_IVECC2_H_P.csv

>>> COPY /tmp/ozone_106.25/GMJ_e2_H_P.csv /home/grierjones/DDCASPT2/ozone/ANO-RCC-MB/ozone_106.25/GMJ_e2_H_P.csv

>>> END FOREACH

>>> EXPORT j = M

>>> IF (-FILE GMJ_e2_${i}_${j}.csv)

>>> COPY /tmp/ozone_106.25/GMJ_RHS_H_M.csv /home/grierjones/DDCASPT2/ozone/ANO-RCC-MB/ozone_106.25/GMJ_RHS_H_M.csv

>>> COPY /tmp/ozone_106.25/GMJ_IVECW_H_M.csv /home/grierjones/DDCASPT2/ozone/ANO-RCC-MB/ozone_106.25/GMJ_IVECW_H_M.csv

>>> COPY /tmp/ozone_106.25/GMJ_IVECX_H_M.csv /home/grierjones/DDCASPT2/ozone/ANO-RCC-MB/ozone_106.25/GMJ_IVECX_H_M.csv

>>> COPY /tmp/ozone_106.25/GMJ_IVECC2_H_M.csv /home/grierjones/DDCASPT2/ozone/ANO-RCC-MB/ozone_106.25/GMJ_IVECC2_H_M.csv

>>> COPY /tmp/ozone_106.25/GMJ_e2_H_M.csv /home/grierjones/DDCASPT2/ozone/ANO-RCC-MB/ozone_106.25/GMJ_e2_H_M.csv

>>> END FOREACH

>>> END FOREACH

>>> EXPORT i = A

>>> IF (-FILE GMJ_e2_$i.csv)

>>> COPY /tmp/ozone_106.25/GMJ_RHS_A.csv /home/grierjones/DDCASPT2/ozone/ANO-RCC-MB/ozone_106.25/GMJ_RHS_A.csv

>>> COPY /tmp/ozone_106.25/GMJ_IVECW_A.csv /home/grierjones/DDCASPT2/ozone/ANO-RCC-MB/ozone_106.25/GMJ_IVECW_A.csv

>>> COPY /tmp/ozone_106.25/GMJ_IVECX_A.csv /home/grierjones/DDCASPT2/ozone/ANO-RCC-MB/ozone_106.25/GMJ_IVECX_A.csv

>>> COPY /tmp/ozone_106.25/GMJ_IVECC2_A.csv /home/grierjones/DDCASPT2/ozone/ANO-RCC-MB/ozone_106.25/GMJ_IVECC2_A.csv

>>> COPY /tmp/ozone_106.25/GMJ_e2_A.csv /home/grierjones/DDCASPT2/ozone/ANO-RCC-MB/ozone_106.25/GMJ_e2_A.csv

>>> END FOREACH

>>> EXPORT i = C

>>> IF (-FILE GMJ_e2_$i.csv)

>>> COPY /tmp/ozone_106.25/GMJ_RHS_C.csv /home/grierjones/DDCASPT2/ozone/ANO-RCC-MB/ozone_106.25/GMJ_RHS_C.csv

>>> COPY /tmp/ozone_106.25/GMJ_IVECW_C.csv /home/grierjones/DDCASPT2/ozone/ANO-RCC-MB/ozone_106.25/GMJ_IVECW_C.csv

>>> COPY /tmp/ozone_106.25/GMJ_IVECX_C.csv /home/grierjones/DDCASPT2/ozone/ANO-RCC-MB/ozone_106.25/GMJ_IVECX_C.csv

>>> COPY /tmp/ozone_106.25/GMJ_IVECC2_C.csv /home/grierjones/DDCASPT2/ozone/ANO-RCC-MB/ozone_106.25/GMJ_IVECC2_C.csv

>>> COPY /tmp/ozone_106.25/GMJ_e2_C.csv /home/grierjones/DDCASPT2/ozone/ANO-RCC-MB/ozone_106.25/GMJ_e2_C.csv

>>> END FOREACH

>>> EXPORT i = D

>>> IF (-FILE GMJ_e2_$i.csv)

>>> COPY /tmp/ozone_106.25/GMJ_RHS_D.csv /home/grierjones/DDCASPT2/ozone/ANO-RCC-MB/ozone_106.25/GMJ_RHS_D.csv

>>> COPY /tmp/ozone_106.25/GMJ_IVECW_D.csv /home/grierjones/DDCASPT2/ozone/ANO-RCC-MB/ozone_106.25/GMJ_IVECW_D.csv

>>> COPY /tmp/ozone_106.25/GMJ_IVECX_D.csv /home/grierjones/DDCASPT2/ozone/ANO-RCC-MB/ozone_106.25/GMJ_IVECX_D.csv

>>> COPY /tmp/ozone_106.25/GMJ_IVECC2_D.csv /home/grierjones/DDCASPT2/ozone/ANO-RCC-MB/ozone_106.25/GMJ_IVECC2_D.csv

>>> COPY /tmp/ozone_106.25/GMJ_e2_D.csv /home/grierjones/DDCASPT2/ozone/ANO-RCC-MB/ozone_106.25/GMJ_e2_D.csv

>>> END FOREACH

.########################.
.# Non-zero return code #.
.########################.

    Timing: Wall=1.04 User=0.77 System=0.27
********************************************
*** WorkDir at /tmp/ozone_106.25 cleaned ***
********************************************
