[Molden Format]
[N_Atoms]
                     2
[Atoms] (AU)
B1          1      5           0.00000000      0.00000000      0.00000000
B2          2      5           0.00000000      0.00000000      1.88972612
[Charge] (Mulliken)
 -1.545430450278218E-013
  1.465494392505207E-013
[GTO] (AU)
   1
   s  14
  3.336021700E+04  1.039699991E-04
  4.972095200E+03  5.254399956E-04
  1.125641700E+03  2.509059979E-03
  3.164913600E+02  1.031887991E-02
  1.020072600E+02  3.636632969E-02
  3.629587300E+01  1.064607991E-01
  1.397141000E+01  2.403999880E-01
  5.741156000E+00  3.748581168E-01
  2.494268000E+00  3.100066974E-01
  1.114202000E+00  7.922455933E-02
  4.215490000E-01 -4.947589958E-03
  1.696330000E-01 -7.737119935E-03
  6.853500000E-02 -1.501079987E-03
  2.398700000E-02 -1.333299989E-04
   s  14
  3.336021700E+04 -2.030000008E-05
  4.972095200E+03 -1.025700004E-04
  1.125641700E+03 -4.911300020E-04
  3.164913600E+02 -2.026570008E-03
  1.020072600E+02 -7.261010030E-03
  3.629587300E+01 -2.197722009E-02
  1.397141000E+01 -5.408428022E-02
  5.741156000E+00 -1.022402604E-01
  2.494268000E+00 -1.423595206E-01
  1.114202000E+00 -4.658690019E-02
  4.215490000E-01  3.799402916E-01
  1.696330000E-01  5.890463624E-01
  6.853500000E-02  1.749075107E-01
  2.398700000E-02 -1.142030005E-03
   p   9
  5.500000000E+01  1.229800005E-03
  1.336610100E+01  8.827380035E-03
  4.135394000E+00  3.843340015E-02
  1.481256000E+00  1.150031805E-01
  6.021360000E-01  2.733674011E-01
  2.556360000E-01  4.061972116E-01
  1.111510000E-01  3.014967912E-01
  4.764800000E-02  7.684809030E-02
  1.667700000E-02 -8.170000032E-06
 
   2
   s  14
  3.336021700E+04  1.039699991E-04
  4.972095200E+03  5.254399956E-04
  1.125641700E+03  2.509059979E-03
  3.164913600E+02  1.031887991E-02
  1.020072600E+02  3.636632969E-02
  3.629587300E+01  1.064607991E-01
  1.397141000E+01  2.403999880E-01
  5.741156000E+00  3.748581168E-01
  2.494268000E+00  3.100066974E-01
  1.114202000E+00  7.922455933E-02
  4.215490000E-01 -4.947589958E-03
  1.696330000E-01 -7.737119935E-03
  6.853500000E-02 -1.501079987E-03
  2.398700000E-02 -1.333299989E-04
   s  14
  3.336021700E+04 -2.030000008E-05
  4.972095200E+03 -1.025700004E-04
  1.125641700E+03 -4.911300020E-04
  3.164913600E+02 -2.026570008E-03
  1.020072600E+02 -7.261010030E-03
  3.629587300E+01 -2.197722009E-02
  1.397141000E+01 -5.408428022E-02
  5.741156000E+00 -1.022402604E-01
  2.494268000E+00 -1.423595206E-01
  1.114202000E+00 -4.658690019E-02
  4.215490000E-01  3.799402916E-01
  1.696330000E-01  5.890463624E-01
  6.853500000E-02  1.749075107E-01
  2.398700000E-02 -1.142030005E-03
   p   9
  5.500000000E+01  1.229800005E-03
  1.336610100E+01  8.827380035E-03
  4.135394000E+00  3.843340015E-02
  1.481256000E+00  1.150031805E-01
  6.021360000E-01  2.733674011E-01
  2.556360000E-01  4.061972116E-01
  1.111510000E-01  3.014967912E-01
  4.764800000E-02  7.684809030E-02
  1.667700000E-02 -8.170000032E-06
 
[MO]
Sym=     1a  
Ene=    -7.8649
Spin= Alpha
Occup=    2.00000
   1         0.70320132
   2         0.01073199
   3         0.00000000
   4        -0.00000000
   5         0.00499030
   6         0.70320132
   7         0.01073199
   8        -0.00000000
   9        -0.00000000
  10        -0.00499030
Sym=     2a  
Ene=    -7.8222
Spin= Alpha
Occup=    2.00000
   1        -0.71020818
   2        -0.01219050
   3         0.00000000
   4        -0.00000000
   5        -0.00117763
   6         0.71020818
   7         0.01219050
   8        -0.00000000
   9         0.00000000
  10        -0.00117763
Sym=     3a  
Ene=    -0.7785
Spin= Alpha
Occup=    2.00000
   1        -0.13486934
   2         0.43554186
   3         0.00000000
   4        -0.00000000
   5         0.28055402
   6        -0.13486934
   7         0.43554186
   8        -0.00000000
   9         0.00000000
  10        -0.28055402
Sym=     4a  
Ene=    -0.4266
Spin= Alpha
Occup=    2.00000
   1         0.00000000
   2        -0.00000000
   3        -0.06999562
   4         0.55187127
   5         0.00000000
   6        -0.00000000
   7         0.00000000
   8        -0.06999562
   9         0.55187127
  10         0.00000000
Sym=     5a  
Ene=    -0.4197
Spin= Alpha
Occup=    1.95711
   1        -0.00000000
   2        -0.00000000
   3         0.55187127
   4         0.06999562
   5        -0.00000000
   6         0.00000000
   7         0.00000000
   8         0.55187127
   9         0.06999562
  10         0.00000000
Sym=     6a  
Ene=    -0.0005
Spin= Alpha
Occup=    0.04289
   1        -0.07952901
   2        -0.94302116
   3        -0.00000000
   4        -0.00000000
   5         0.20234153
   6         0.07952901
   7         0.94302116
   8         0.00000000
   9        -0.00000000
  10         0.20234153
Sym=     7a  
Ene=     0.0208
Spin= Alpha
Occup=    0.00000
   1         0.11062292
   2         0.40295231
   3         0.00000000
   4        -0.00000000
   5        -0.78027173
   6         0.11062292
   7         0.40295231
   8        -0.00000000
   9        -0.00000000
  10         0.78027173
Sym=     8a  
Ene=     0.3438
Spin= Alpha
Occup=    0.00000
   1         0.00000000
   2        -0.00000000
   3         0.14352374
   4        -1.13159401
   5         0.00000000
   6        -0.00000000
   7        -0.00000000
   8        -0.14352374
   9         1.13159401
  10         0.00000000
Sym=     9a  
Ene=     0.3443
Spin= Alpha
Occup=    0.00000
   1        -0.00000000
   2         0.00000000
   3        -1.13159401
   4        -0.14352374
   5        -0.00000000
   6         0.00000000
   7         0.00000000
   8         1.13159401
   9         0.14352374
  10        -0.00000000
Sym=    10a  
Ene=     1.5753
Spin= Alpha
Occup=    0.00000
   1        -1.10886344
   2        -4.42796341
   3         0.00000000
   4         0.00000000
   5        -2.36211423
   6         1.10886344
   7         4.42796341
   8        -0.00000000
   9         0.00000000
  10        -2.36211423
