   This run of MOLCAS is using the pymolcas driver

                             OPE
                             OPE          NMOL  CASOP  ENMOLC A   SO
                 OPE        NMOLC        AS  OP EN  MO LC     AS  OP
                OPENM       OL CA        SO  PE NM  OL CA     SOP EN
                OP EN      MO   LC       AS  OP ENMOL  CASO   PENMOL
                OP  EN     MO   LC       AS  OP EN     MO     LC ASO
               OP   E  NMOL  C  AS       OP  EN MO     LC     AS  OP
               OP  E   NMO   LC AS        OPEN  MO     LCASOP EN   M
               O  PEN   MO  LCA  SO
            OPE   NMO   L   CAS    OP
        OPENMOL  CASOP     ENMOL   CASOPE
     OPENMOLCA   SOPENMOLCASOPEN   MOLCASOPE
    OPENMOLCAS   OP           EN   MOL    CAS
    OPENMOLCAS       OP  ENM        O     LCA
    OPENMOLCAS    OPEN  MOLCASO     P  E  NMO
    OPENMOLCAS     OP               E  N  MOL
    OPENMOLCA   SO           PENM   O  L  CAS    OPEN    MO    LCAS
    OPENMOLCA   SOP           ENM   O  L  CAS   OP  EN  MOLC  AS   O
    OPENMOLCA   SOPE           NM      O  LCA   S      OP  EN MO
    OPENMOLC                AS         O  PEN   M      OL  CA  SOPE
    OPENMO        LCASOPE  NMOL        C  ASO   P      ENMOLC     AS
    OPE     NMO      LCA  SO     P     E   NM   OL  CA SO  PE N   MO
          OPENMOLCA            SOPE   NMO        LCAS  O    P  ENMO
     OPENMOLCASOPENMOLCASOPENMOLCASOPENMOLCA
        OPENMOLCASOPENMOLCASOPENMOLCASOPE
            OPENMOLCASOPENMOLCASOPENM
               OPENMOLCASOPENMOLCA        version: ea724fe96-dirty
                   OPENMOLCASO
                       OPE                tag:

 OpenMolcas is free software; you can redistribute it and/or modify it
 under the terms of the GNU Lesser General Public License version 2.1.
 OpenMolcas is distributed in the hope that it will be useful, but it
 is provided "as is" and without any express or implied warranties.
 For more details see the full text of the license in the file
 LICENSE or in <http://www.gnu.org/licenses/>.

                 Copyright (C) The OpenMolcas Authors
           For the author list and the recommended citation,
                   consult the file CONTRIBUTORS.md

           *************************************************
           * pymolcas version py2.28                       *
           *   build c4a6d18ded8cb6cad61d2372a9abd97c      *
           *   (after the EMIL interpreter by V. Veryazov) *
           *************************************************

configuration info
------------------
C Compiler ID: Intel
C flags: -std=gnu99
Fortran Compiler ID: Intel
Fortran flags: -fpp -i8 -r8 -heap-arrays
Definitions: _MOLCAS_;_I8_;_LINUX_
Parallel: OFF (GA=OFF)


   --------------------------------------------------------------------------------
  |
  |              Project: ozone_151.50
  |       Submitted from: /home/grierjones/DDCASPT2/ozone/ANO-RCC-VDZP/ozone_151.50
  |         Scratch area: /tmp/ozone_151.50
  |      Save outputs to: /home/grierjones/DDCASPT2/ozone/ANO-RCC-VDZP/ozone_151.50
  |               Molcas: /home/grierjones/Test/build
  |
  | Scratch area is empty
  |
  |       MOLCAS_DRIVER = /usr/local/pymolcas
  | MOLCAS_KEEP_WORKDIR = NO
  |  MOLCAS_NEW_WORKDIR = YES
  |       MOLCAS_NPROCS = 1
  |        MOLCAS_PRINT = NORMAL
  |       MOLCAS_SOURCE = /home/grierjones/Test/build
  |    MOLCAS_STRUCTURE = 0
  |
   --------------------------------------------------------------------------------

++ ---------   Input file   ---------

&GATEWAY
coord=ozone_151.50.xyz
Basis = ANO-RCC-VDZP
Group = nosymm
Expert
End of Input

&SEWARD
End of Input

&SCF

>>> COPY $WorkDir/ozone_151.50.scf.h5 $CurrDir/

&RASSCF
Title= RASSCF
FileOrb
/home/grierjones/DDCASPT2/ozone/ANO-RCC-VDZP/ozone_151.00/ozone_151.00.RasOrb
NACTEL
4 0 0
Inactive
10
RAS2
3
Symmetry
1
Spin
1
orblisting
all
ITERation
200 100
CIMX
200
SDAV
500

>>> COPY $WorkDir/ozone_151.50.rasscf.h5 $CurrDir/

>>> COPY $WorkDir/GMJ_Fock_MO.csv $CurrDir/ozone_151.50.GMJ_Fock_MO.csv

>>> COPY $WorkDir/GMJ_PT2_Fock_MO.csv $CurrDir/ozone_151.50.GMJ_PT2_Fock_MO.csv

&MOTRA
Frozen=0
LUMORB

>>> COPY $WorkDir/GMJ_one_int_indx.csv $CurrDir/ozone_151.50.GMJ_one_int_indx.csv

>>> COPY $WorkDir/GMJ_one_int.csv $CurrDir/ozone_151.50.GMJ_one_int.csv

>>> COPY $WorkDir/GMJ_two_int_indx.csv $CurrDir/ozone_151.50.GMJ_two_int_indx.csv

>>> COPY $WorkDir/GMJ_two_int.csv $CurrDir/ozone_151.50.GMJ_two_int.csv

&CASPT2
Frozen
0

>>> FOREACH i IN (B,E,F,G,H)

  >>> FOREACH j IN (P,M)

    >>> IF (-FILE GMJ_e2_${i}_${j}.csv)

      >>> COPY $WorkDir/GMJ_RHS_${i}_${j}.csv $CurrDir/GMJ_RHS_${i}_${j}.csv

      >>> COPY $WorkDir/GMJ_IVECW_${i}_${j}.csv $CurrDir/GMJ_IVECW_${i}_${j}.csv

      >>> COPY $WorkDir/GMJ_IVECX_${i}_${j}.csv $CurrDir/GMJ_IVECX_${i}_${j}.csv

      >>> COPY $WorkDir/GMJ_IVECC2_${i}_${j}.csv $CurrDir/GMJ_IVECC2_${i}_${j}.csv

      >>> COPY $WorkDir/GMJ_e2_${i}_${j}.csv $CurrDir/GMJ_e2_${i}_${j}.csv

    >>> END IF

  >>> END FOREACH

>>> END FOREACH

>>> FOREACH i IN (A,C,D)

  >>> IF (-FILE GMJ_e2_$i.csv)

    >>> COPY $WorkDir/GMJ_RHS_$i.csv $CurrDir/GMJ_RHS_$i.csv

    >>> COPY $WorkDir/GMJ_IVECW_$i.csv $CurrDir/GMJ_IVECW_$i.csv

    >>> COPY $WorkDir/GMJ_IVECX_$i.csv $CurrDir/GMJ_IVECX_$i.csv

    >>> COPY $WorkDir/GMJ_IVECC2_$i.csv $CurrDir/GMJ_IVECC2_$i.csv

    >>> COPY $WorkDir/GMJ_e2_$i.csv $CurrDir/GMJ_e2_$i.csv

  >>> END IF

>>> END FOREACH

-- ----------------------------------

--- Start Module: gateway at Wed Nov 13 12:57:33 2024 ---
 
()()()()()()()()()()()()()()()()()()()()()()()()()()()()()()()()()()()()()()()()()()()()()()()()()()

                                              &GATEWAY

                                   only a single process is used
                       available to each process: 2.0 GB of memory, 1 thread?
()()()()()()()()()()()()()()()()()()()()()()()()()()()()()()()()()()()()()()()()()()()()()()()()()()
 
 ###############################################################################
 ###############################################################################
 ###                                                                         ###
 ###                                                                         ###
 ###                                                                         ###
 ###    WARNING: EXPERT option is ON!                                        ###
 ###                                                                         ###
 ###                                                                         ###
 ###############################################################################
 ###############################################################################
 
++    Symmetry information:
      ---------------------
 
                    Character Table for C1 
 
                             E  
                    a        1  x, y, xy, Rz, z, xz, Ry, yz, Rx, I
--
 
 
++    Basis set information:
      ----------------------
 
 
      Basis set label: O.ANO-RCC...3S2P1D.
 
      Electronic valence basis set:
      ------------------
      Associated Effective Charge   8.000000 au
      Associated Actual Charge      8.000000 au
      Nuclear Model: Point charge
 
      Shell  nPrim  nBasis  Cartesian Spherical Contaminant
         s      14       3        X                  
         p       9       2        X                  
         d       4       1                 X         
--
 
 
++    Molecular structure info:
      -------------------------
 
                    ************************************************ 
                    **** Cartesian Coordinates / Bohr, Angstrom **** 
                    ************************************************ 
 
     Center  Label                x              y              z                     x              y              z
        1      O1               0.594478       2.340760       0.000000              0.314584       1.238677       0.000000
        2      O2               0.000000       0.000000       0.000000              0.000000       0.000000       0.000000
        3      O3               0.594478      -2.340760       0.000000              0.314584      -1.238677       0.000000
 
                    *************************************** 
                    *    InterNuclear Distances / Bohr    * 
                    *************************************** 
 
               1 O1            2 O2            3 O3    
    1 O1       0.000000
    2 O2       2.415070        0.000000
    3 O3       4.681521        2.415070        0.000000
 
                    ******************************************* 
                    *    InterNuclear Distances / Angstrom    * 
                    ******************************************* 
 
               1 O1            2 O2            3 O3    
    1 O1       0.000000
    2 O2       1.278000        0.000000
    3 O3       2.477354        1.278000        0.000000
 
                    ************************************** 
                    *    Valence Bond Angles / Degree    * 
                    ************************************** 
                          Atom centers                 Phi
                      1 O1       2 O2       3 O3       151.50
--
 
 
            Nuclear Potential Energy             66.67130951 au
 
 ###############################################################################
 ###############################################################################
 ###                                                                         ###
 ###                                                                         ###
 ###    There were warnings during the execution                             ###
 ###    Please, check the output with care!                                  ###
 ###                                                                         ###
 ###                                                                         ###
 ###############################################################################
 ###############################################################################
--- Stop Module: gateway at Wed Nov 13 12:57:33 2024 /rc=_RC_ALL_IS_WELL_ ---
*** files: xmldump
    saved to directory /home/grierjones/DDCASPT2/ozone/ANO-RCC-VDZP/ozone_151.50

--- Start Module: seward at Wed Nov 13 12:57:33 2024 ---
 
()()()()()()()()()()()()()()()()()()()()()()()()()()()()()()()()()()()()()()()()()()()()()()()()()()

                                              &SEWARD

                                   only a single process is used
                       available to each process: 2.0 GB of memory, 1 thread?
()()()()()()()()()()()()()()()()()()()()()()()()()()()()()()()()()()()()()()()()()()()()()()()()()()
 
 ###############################################################################
 ###############################################################################
 ###                                                                         ###
 ###                                                                         ###
 ###                                                                         ###
 ###    WARNING: EXPERT option is ON!                                        ###
 ###                                                                         ###
 ###                                                                         ###
 ###############################################################################
 ###############################################################################
               SEWARD will generate:
                  Multipole Moment integrals up to order  2
                  Kinetic Energy integrals
                  Nuclear Attraction integrals (point charge)
                  One-Electron Hamiltonian integrals
                  Velocity integrals
                  Relativistic Douglas-Kroll-Hess integrals:
                    - Parametrization         : EXP
                    - DKH order of Hamiltonian: 2
                    - DKH order of Properties : 0
                         - multipole moment operators
                         - electric potential operators
                         - contact operators
                  Atomic mean-field integrals
                  Two-Electron Repulsion integrals
 
                   Integrals are discarded if absolute value <: 0.10E-13
                   Integral cutoff threshold is set to       <: 0.10E-15
 
            Nuclear Potential Energy             66.67130951 au
 
 
      Basis set specifications :
      Symmetry species         a  
      Basis functions           42
 
 
  Input file to MOLDEN was generated!
 
 ###############################################################################
 ###############################################################################
 ###                                                                         ###
 ###                                                                         ###
 ###    There were warnings during the execution                             ###
 ###    Please, check the output with care!                                  ###
 ###                                                                         ###
 ###                                                                         ###
 ###############################################################################
 ###############################################################################
--- Stop Module: seward at Wed Nov 13 12:57:34 2024 /rc=_RC_ALL_IS_WELL_ ---
*** files: ozone_151.50.GssOrb ozone_151.50.guessorb.h5 ozone_151.50.guessorb.molden xmldump
    saved to directory /home/grierjones/DDCASPT2/ozone/ANO-RCC-VDZP/ozone_151.50

*** symbolic link created: INPORB -> ozone_151.50.GssOrb
--- Start Module: scf at Wed Nov 13 12:57:34 2024 ---
 
()()()()()()()()()()()()()()()()()()()()()()()()()()()()()()()()()()()()()()()()()()()()()()()()()()

                                                &SCF

                                   only a single process is used
                       available to each process: 2.0 GB of memory, 1 thread?
()()()()()()()()()()()()()()()()()()()()()()()()()()()()()()()()()()()()()()()()()()()()()()()()()()
 
++    Input section:
      --------------
 
      Header of the integral files:
      
       Integrals generated by seward 4.2.0  , Wed Nov 13 12:57:33 2024
 
 
      Cartesian coordinates in Angstrom:
      -----------------------------------------------------
      No.  Label        X            Y            Z        
      -----------------------------------------------------
       1   O1         0.31458400   1.23867700   0.00000000
       2   O2         0.00000000   0.00000000   0.00000000
       3   O3         0.31458400  -1.23867700   0.00000000
      -----------------------------------------------------
      Nuclear repulsion energy =   66.67130951
--
 
++    Orbital specifications:
      -----------------------
 
      Symmetry species               1
                                     a
      Frozen orbitals                0
      Occupied orbitals             12
      Secondary orbitals            30
      Deleted orbitals               0
      Total number of orbitals      42
      Number of basis functions     42
--
 
      Molecular charge                           0.000
 
++    Optimization specifications:
      ----------------------------
 
      SCF Algorithm: Conventional
      Minimized density differences are used
      Number of density matrices in core                5
      Maximum number of NDDO SCF iterations           400
      Maximum number of HF SCF iterations             400
      Threshold for SCF energy change            0.10E-08
      Threshold for density matrix               0.10E-03
      Threshold for Fock matrix                  0.15E-03
      Threshold for linear dependence            0.10E-08
      Threshold at which DIIS is turned on       0.15E+00
      Threshold at which QNR/C2DIIS is turned on 0.75E-01
      Threshold for Norm(delta) (QNR/C2DIIS)     0.20E-04
      DIIS extrapolation of the SCF procedure
      All orbitals punched on: SCFORB
--
 
      Input vectors read from INPORB
      Orbital file label: *Guess orbitals
 
 
++ Convergence information
                                   SCF        iterations: Energy and convergence statistics
 
Iter     Tot. SCF        One-elec.       Two-elec.     Energy      Max Dij or  Max Fij      DNorm      TNorm      AccCon     Time
         Energy          Energy          Energy        Change      Delta Norm                                                in Sec.
   1  -223.919212698  -437.119822521   146.529300318   0.00E+00    0.57E+00*   0.26E+00*    0.73E+01   0.75E+02   None         0.
   2  -224.134812301  -443.062198247   152.256076441  -0.22E+00*   0.27E+00*   0.17E+00*    0.22E+01   0.77E+02   EDIIS        0.
   3  -224.388408982  -440.525714800   149.465996312  -0.25E+00*   0.21E+00*   0.90E-01*    0.79E+00   0.76E+02   EDIIS        0.
   4  -224.397814447  -441.346319793   150.277195840  -0.94E-02*   0.35E-01*   0.48E-01*    0.21E+00   0.76E+02   EDIIS        0.
   5  -224.431121265  -440.906231482   149.803800712  -0.33E-01*   0.14E-01*   0.70E-02*    0.47E-01   0.76E+02   c2DIIS       0.
   6  -224.431582999  -440.947734449   149.844841945  -0.46E-03*   0.57E-02*   0.33E-02*    0.11E-01   0.76E+02   QNRc2DIIS    0.
   7  -224.431677553  -440.953662814   149.850675756  -0.95E-04*   0.13E-01*   0.27E-02*    0.34E-02   0.76E+02   QNRc2DIIS    0.
   8  -224.431749213  -440.945827075   149.842768357  -0.72E-04*   0.16E-02*   0.87E-03*    0.18E-02   0.76E+02   QNRc2DIIS    0.
   9  -224.431755602  -440.951627119   149.848562011  -0.64E-05*   0.98E-03*   0.25E-03*    0.14E-02   0.76E+02   QNRc2DIIS    0.
  10  -224.431756781  -440.950140415   149.847074128  -0.12E-05*   0.29E-03*   0.70E-04     0.98E-03   0.76E+02   QNRc2DIIS    0.
  11  -224.431756856  -440.952031121   149.848964759  -0.74E-07*   0.93E-04*   0.41E-04     0.29E-03   0.76E+02   QNRc2DIIS    0.
  12  -224.431756869  -440.951067714   149.848001339  -0.14E-07*   0.27E-04*   0.83E-05     0.60E-04   0.76E+02   QNRc2DIIS    0.
  13  -224.431756870  -440.951090509   149.848024133  -0.10E-08*   0.62E-05    0.20E-05     0.23E-04   0.76E+02   QNRc2DIIS    0.
  14  -224.431756871  -440.951114589   149.848048213  -0.65E-10    0.79E-06    0.40E-06     0.34E-03   0.76E+02   QNRc2DIIS    0.
 
       Convergence after 14 Macro Iterations
--
 
 *****************************************************************************************************************************
 *                                                                                                                           *
 *                                             SCF/KS-DFT Program, Final results                                             *
 *                                                                                                                           *
 *                                                                                                                           *
 *                                                                                                                           *
 *                                                       Final Results                                                       *
 *                                                                                                                           *
 *****************************************************************************************************************************
 
::    Total SCF energy                               -224.4317568705
      One-electron energy                            -440.9511145888
      Two-electron energy                             149.8480482127
      Nuclear repulsion energy                         66.6713095056
      Kinetic energy (interpolated)                   225.5022405725
      Virial theorem                                    0.9952528911
      Total spin, S(S+1)                                0.0000000000
      Total spin, S                                     0.0000000000
      Max non-diagonal density matrix element           0.0000010512
      Max non-diagonal Fock matrix element              0.0000001707
 
 
      All orbitals with orbital energies smaller than  E(LUMO)+0.5 are printed
 
++    Molecular orbitals:
      -------------------
 
      Title: SCF orbitals

      Molecular orbitals for symmetry species 1: a  
 
          Orbital            1         2         3         4         5         6         7         8         9        10    
          Energy          -20.8780  -20.7331  -20.7331   -1.7237   -1.4685   -1.0732   -0.8360   -0.8014   -0.7647   -0.6050
          Occ. No.          2.0000    2.0000    2.0000    2.0000    2.0000    2.0000    2.0000    2.0000    2.0000    2.0000
 
        1 O1     1s         0.0022   -0.7072    0.7072   -0.0152    0.0102    0.0128   -0.0064   -0.0188    0.0000    0.0058
        2 O1     2s        -0.0000   -0.0008    0.0005    0.3235   -0.5712    0.6392   -0.1387   -0.4061    0.0000    0.0712
        3 O1     3s        -0.0001   -0.0001   -0.0001   -0.0231    0.0130    0.0168   -0.0117   -0.0261    0.0000    0.0069
        4 O1     2px        0.0001    0.0002   -0.0002   -0.0224    0.0358    0.0665    0.2973   -0.2283    0.0000   -0.6554
        5 O1     3px        0.0003    0.0001    0.0001    0.0079   -0.0047   -0.0109   -0.0275    0.0133   -0.0000   -0.0031
        6 O1     2py       -0.0001    0.0009   -0.0010   -0.1051    0.0903    0.1565   -0.1908   -0.3748   -0.0000    0.2625
        7 O1     3py        0.0001   -0.0005    0.0003    0.0247   -0.0183   -0.0235    0.0174    0.0295   -0.0000    0.0007
        8 O1     2pz       -0.0000   -0.0000   -0.0000    0.0000   -0.0000   -0.0000    0.0000    0.0000    0.4007    0.0000
        9 O1     3pz        0.0000   -0.0000   -0.0000   -0.0000    0.0000    0.0000    0.0000   -0.0000   -0.0241   -0.0000
       10 O1     3d2-      -0.0000   -0.0000    0.0000    0.0059   -0.0086   -0.0073   -0.0154    0.0179    0.0000    0.0109
       11 O1     3d1-       0.0000   -0.0000    0.0000    0.0000    0.0000   -0.0000   -0.0000   -0.0000   -0.0300   -0.0000
       12 O1     3d0        0.0001    0.0001   -0.0001   -0.0089    0.0087    0.0059   -0.0059   -0.0161   -0.0000    0.0049
       13 O1     3d1+      -0.0000   -0.0000   -0.0000   -0.0000   -0.0000    0.0000   -0.0000    0.0000   -0.0070   -0.0000
       14 O1     3d2+       0.0000   -0.0002    0.0001   -0.0171    0.0127    0.0114   -0.0192   -0.0249    0.0000    0.0139
       15 O2     1s         1.0000   -0.0000   -0.0034   -0.0212    0.0000   -0.0154   -0.0041    0.0000   -0.0000   -0.0000
       16 O2     2s         0.0003   -0.0000   -0.0008    0.6673    0.0000   -0.6309   -0.0485   -0.0000   -0.0000   -0.0000
       17 O2     3s        -0.0005   -0.0000   -0.0006   -0.0404    0.0000   -0.0107   -0.0054    0.0000   -0.0000   -0.0000
       18 O2     2px        0.0005   -0.0000   -0.0001    0.0681   -0.0000    0.1321    0.7292    0.0000   -0.0000    0.0000
       19 O2     3px       -0.0009   -0.0000   -0.0002   -0.0163    0.0000   -0.0155   -0.0599   -0.0000   -0.0000    0.0000
       20 O2     2py        0.0000    0.0009   -0.0000    0.0000   -0.3300   -0.0000   -0.0000    0.5206    0.0000   -0.1253
       21 O2     3py       -0.0000    0.0012   -0.0000   -0.0000    0.0803   -0.0000    0.0000   -0.0832   -0.0000    0.0039
       22 O2     2pz        0.0000    0.0000    0.0000    0.0000    0.0000   -0.0000   -0.0000   -0.0000    0.6675    0.0000
       23 O2     3pz        0.0000   -0.0000   -0.0000    0.0000   -0.0000   -0.0000   -0.0000   -0.0000   -0.0208   -0.0000
       24 O2     3d2-       0.0000    0.0001   -0.0000    0.0000   -0.0255   -0.0000    0.0000    0.0169   -0.0000   -0.0413
       25 O2     3d1-       0.0000   -0.0000    0.0000   -0.0000    0.0000    0.0000    0.0000    0.0000    0.0000   -0.0000
       26 O2     3d0       -0.0003    0.0000    0.0003   -0.0179    0.0000   -0.0022   -0.0119    0.0000   -0.0000   -0.0000
       27 O2     3d1+       0.0000   -0.0000    0.0000    0.0000   -0.0000   -0.0000    0.0000    0.0000    0.0212    0.0000
       28 O2     3d2+       0.0000    0.0000    0.0003   -0.0264    0.0000   -0.0024    0.0139    0.0000    0.0000   -0.0000
       29 O3     1s         0.0022    0.7072    0.7072   -0.0152   -0.0102    0.0128   -0.0064    0.0188    0.0000   -0.0058
       30 O3     2s        -0.0000    0.0008    0.0005    0.3235    0.5712    0.6392   -0.1387    0.4061    0.0000   -0.0712
       31 O3     3s        -0.0001    0.0001   -0.0001   -0.0231   -0.0130    0.0168   -0.0117    0.0261   -0.0000   -0.0069
       32 O3     2px        0.0001   -0.0002   -0.0002   -0.0224   -0.0358    0.0665    0.2973    0.2283   -0.0000    0.6554
       33 O3     3px        0.0003   -0.0001    0.0001    0.0079    0.0047   -0.0109   -0.0275   -0.0133    0.0000    0.0031
       34 O3     2py        0.0001    0.0009    0.0010    0.1051    0.0903   -0.1565    0.1908   -0.3748   -0.0000    0.2625
       35 O3     3py       -0.0001   -0.0005   -0.0003   -0.0247   -0.0183    0.0235   -0.0174    0.0295    0.0000    0.0007
       36 O3     2pz       -0.0000    0.0000   -0.0000   -0.0000   -0.0000   -0.0000   -0.0000   -0.0000    0.4007    0.0000
       37 O3     3pz       -0.0000    0.0000    0.0000   -0.0000    0.0000    0.0000   -0.0000   -0.0000   -0.0241    0.0000
       38 O3     3d2-       0.0000   -0.0000   -0.0000   -0.0059   -0.0086    0.0073    0.0154    0.0179    0.0000    0.0109
       39 O3     3d1-      -0.0000    0.0000    0.0000   -0.0000    0.0000   -0.0000    0.0000   -0.0000    0.0300    0.0000
       40 O3     3d0        0.0001   -0.0001   -0.0001   -0.0089   -0.0087    0.0059   -0.0059    0.0161   -0.0000   -0.0049
       41 O3     3d1+       0.0000   -0.0000   -0.0000    0.0000   -0.0000   -0.0000   -0.0000   -0.0000   -0.0070   -0.0000
       42 O3     3d2+       0.0000    0.0002    0.0001   -0.0171   -0.0127    0.0114   -0.0192    0.0249   -0.0000   -0.0139
 
          Orbital           11        12        13        14        15        16    
          Energy           -0.5100   -0.5009   -0.0388    0.1736    0.2865    0.4549
          Occ. No.          2.0000    2.0000    0.0000    0.0000    0.0000    0.0000
 
        1 O1     1s        -0.0000    0.0031    0.0000    0.0329   -0.1570   -0.0310
        2 O1     2s        -0.0000    0.0103    0.0000    0.3757   -1.1506   -0.2052
        3 O1     3s        -0.0000    0.0164    0.0000    0.0349   -0.4027   -0.1280
        4 O1     2px        0.0000    0.6689    0.0000   -0.0079    0.2420   -0.0585
        5 O1     3px        0.0000    0.0300   -0.0000   -0.0019    0.1852    0.4157
        6 O1     2py        0.0000    0.0514    0.0000   -0.8144    0.5753    0.1165
        7 O1     3py        0.0000   -0.0190   -0.0000   -0.2214    0.6149    0.2804
        8 O1     2pz       -0.7047    0.0000    0.6578   -0.0000    0.0000   -0.0000
        9 O1     3pz       -0.0390    0.0000    0.1292    0.0000   -0.0000    0.0000
       10 O1     3d2-      -0.0000   -0.0036    0.0000    0.0085   -0.0149    0.0190
       11 O1     3d1-       0.0245   -0.0000    0.0116    0.0000   -0.0000    0.0000
       12 O1     3d0       -0.0000    0.0037   -0.0000    0.0011    0.0177    0.0104
       13 O1     3d1+       0.0051    0.0000    0.0036   -0.0000    0.0000   -0.0000
       14 O1     3d2+       0.0000    0.0072    0.0000    0.0089    0.0267    0.0343
       15 O2     1s         0.0000    0.0185   -0.0000   -0.1270   -0.0000    0.0898
       16 O2     2s         0.0000    0.2345   -0.0000   -1.1493   -0.0000    0.5421
       17 O2     3s         0.0000    0.0341   -0.0000   -0.2660   -0.0000    0.2229
       18 O2     2px       -0.0000   -0.6333   -0.0000   -0.4626   -0.0000   -0.0359
       19 O2     3px       -0.0000   -0.0309   -0.0000   -0.1146   -0.0000    0.5139
       20 O2     2py        0.0000   -0.0000   -0.0000   -0.0000    1.3163   -0.0000
       21 O2     3py        0.0000    0.0000   -0.0000   -0.0000    1.0537    0.0000
       22 O2     2pz        0.0000    0.0000   -0.8747   -0.0000    0.0000   -0.0000
       23 O2     3pz        0.0000    0.0000   -0.1520    0.0000   -0.0000    0.0000
       24 O2     3d2-       0.0000   -0.0000   -0.0000   -0.0000    0.0351    0.0000
       25 O2     3d1-      -0.0548    0.0000   -0.0000   -0.0000    0.0000    0.0000
       26 O2     3d0        0.0000    0.0179    0.0000   -0.0333   -0.0000   -0.0454
       27 O2     3d1+       0.0000    0.0000   -0.0032    0.0000    0.0000   -0.0000
       28 O2     3d2+       0.0000    0.0286    0.0000   -0.0569   -0.0000   -0.1009
       29 O3     1s         0.0000    0.0031   -0.0000    0.0329    0.1570   -0.0310
       30 O3     2s         0.0000    0.0103   -0.0000    0.3757    1.1506   -0.2052
       31 O3     3s         0.0000    0.0164   -0.0000    0.0349    0.4027   -0.1280
       32 O3     2px        0.0000    0.6689    0.0000   -0.0079   -0.2420   -0.0585
       33 O3     3px        0.0000    0.0300    0.0000   -0.0019   -0.1852    0.4157
       34 O3     2py       -0.0000   -0.0514    0.0000    0.8144    0.5753   -0.1165
       35 O3     3py       -0.0000    0.0190    0.0000    0.2214    0.6149   -0.2804
       36 O3     2pz        0.7047   -0.0000    0.6578   -0.0000   -0.0000   -0.0000
       37 O3     3pz        0.0390   -0.0000    0.1292   -0.0000   -0.0000    0.0000
       38 O3     3d2-       0.0000    0.0036   -0.0000   -0.0085   -0.0149   -0.0190
       39 O3     3d1-       0.0245   -0.0000   -0.0116    0.0000    0.0000   -0.0000
       40 O3     3d0        0.0000    0.0037   -0.0000    0.0011   -0.0177    0.0104
       41 O3     3d1+      -0.0051    0.0000    0.0036   -0.0000   -0.0000    0.0000
       42 O3     3d2+       0.0000    0.0072    0.0000    0.0089   -0.0267    0.0343
--
 
 
++    Molecular charges:
      ------------------
 
      Mulliken charges per centre and basis function type
      ---------------------------------------------------
 
                O1      O2      O3    
      1s       2.0003  2.0001  2.0003
      2s       1.9312  1.7219  1.9312
      2px      1.9671  1.8009  1.9671
      2pz      1.4166  1.1198  1.4166
      2py      0.8212  0.9992  0.8212
      3s      -0.0109 -0.0206 -0.0109
      3px     -0.0182 -0.0348 -0.0182
      3pz     -0.0115 -0.0076 -0.0115
      3py     -0.0077  0.0252 -0.0077
      3d2+     0.0196  0.0288  0.0196
      3d1+     0.0008  0.0032  0.0008
      3d0      0.0056  0.0071  0.0056
      3d1-     0.0132  0.0466  0.0132
      3d2-     0.0099  0.0359  0.0099
      Total    8.1371  7.7258  8.1371
 
      N-E     -0.1371  0.2742 -0.1371
 
      Total electronic charge=   24.000000
 
      Total            charge=   -0.000000
--
 
 
  Input file to MOLDEN was generated!
 
 
++    Static properties:
      ------------------
 
 
      LoProp Charges per center
 

                   O1       O2       O3    
      Nuclear      8.0000   8.0000   8.0000
      Electronic  -8.1818  -7.6364  -8.1818
 
      Total       -0.1818   0.3636  -0.1818
--
 
 
++    Natural Bond Order analysis
      ---------------------------
      Based on LoProp computed density
      -------------------------------------------------------------------------------------
      Atom A       Atom B       Bond Order | Atom A       Atom B       Bond Order
        O1           O2             2.000  |   O2           O3             2.000
      -------------------------------------------------------------------------------------
      NBO located     12.000 core electrons.
      NBO located      3.975 lone pair electrons.
      NBO located      8.000 electrons involved in    2 bonds.
      The remaining    0.025 electrons are to be considered as diffuse
--
 
 
++    Molecular properties:
      ---------------------
 
      Charge (e):
                      =   -0.0000
      Dipole Moment (Debye):
      Origin of the operator (Ang)=    0.0000    0.0000    0.0000
                   X= -1.6000E-01               Y= -3.2265E-11               Z=  3.6492E-14           Total=  1.6000E-01
      Quadrupole Moment (Debye*Ang):
      Origin of the operator (Ang)=    0.2097    0.0000    0.0000
                  XX= -1.6462E+01              XY= -2.2895E-12              XZ=  1.3326E-13              YY= -1.7240E+01
                  YZ=  1.1242E-13              ZZ= -1.5180E+01
      In traceless form (Debye*Ang)
                  XX= -2.5238E-01              XY= -3.4343E-12              XZ=  1.9989E-13              YY= -1.4189E+00
                  YZ=  1.6862E-13              ZZ=  1.6713E+00
--
 
 
  Input file to MOLDEN was generated!
 
 ###############################################################################
 ###############################################################################
 ###                                                                         ###
 ###                                                                         ###
 ###    RunFile label nBas                                                   ###
 ###    was used       78 times                                              ###
 ###                                                                         ###
 ###                                                                         ###
 ###############################################################################
 ###############################################################################
--- Stop Module: scf at Wed Nov 13 12:57:34 2024 /rc=_RC_ALL_IS_WELL_ ---
*** files: ozone_151.50.LprOrb ozone_151.50.LoProp.molden ozone_151.50.scf.molden ozone_151.50.ScfOrb ozone_151.50.scf.h5 xmldump
    saved to directory /home/grierjones/DDCASPT2/ozone/ANO-RCC-VDZP/ozone_151.50

>>> COPY /tmp/ozone_151.50/ozone_151.50.scf.h5 /home/grierjones/DDCASPT2/ozone/ANO-RCC-VDZP/ozone_151.50/

*** symbolic link created: INPORB -> ozone_151.50.ScfOrb
--- Start Module: rasscf at Wed Nov 13 12:57:34 2024 ---
 
()()()()()()()()()()()()()()()()()()()()()()()()()()()()()()()()()()()()()()()()()()()()()()()()()()

                                              &RASSCF

                                   only a single process is used
                       available to each process: 2.0 GB of memory, 1 thread?
()()()()()()()()()()()()()()()()()()()()()()()()()()()()()()()()()()()()()()()()()()()()()()()()()()
 
 
      Header of the ONEINT file:
      --------------------------
      
      Integrals generated by seward 4.2.0  , Wed Nov 13 12:57:33 2024
 
 
      OrdInt status: non-squared
 
 
      Cartesian coordinates in Angstrom:
      -----------------------------------------------------
      No.  Label        X            Y            Z        
      -----------------------------------------------------
       1   O1         0.31458400   1.23867700   0.00000000
       2   O2         0.00000000   0.00000000   0.00000000
       3   O3         0.31458400  -1.23867700   0.00000000
      -----------------------------------------------------
      Nuclear repulsion energy =   66.67130951
 
++    Wave function specifications:
      -----------------------------
 
      Number of closed shell electrons          20
      Number of electrons in active shells       4
      Max number of holes in RAS1 space          0
      Max nr of electrons in RAS3 space          0
      Number of inactive orbitals               10
      Number of active orbitals                  3
      Number of secondary orbitals              29
      Spin quantum number                      0.0
      State symmetry                             1
--
 
++    Orbital specifications:
      -----------------------
 
      Symmetry species                           1
                                                 a
      Frozen orbitals                            0
      Inactive orbitals                         10
      Active orbitals                            3
      RAS1 orbitals                              0
      RAS2 orbitals                              3
      RAS3 orbitals                              0
      Secondary orbitals                        29
      Deleted orbitals                           0
      Number of basis functions                 42
--
 
++    CI expansion specifications:
      ----------------------------
 
      Number of CSFs                             6
      Number of determinants                     6
      Number of root(s) required                 1
      Root chosen for geometry opt.              1
      CI root used                               1
         
      highest root included in the CI            1
      max. size of the explicit Hamiltonian      6
--
 
++    Optimization specifications:
      ----------------------------
 
      RASSCF algorithm: Conventional
      Maximum number of macro iterations       200
      Maximum number of SX iterations          100
      Threshold for RASSCF energy            0.100E-07
      Threshold for max MO rotation          0.100E+00
      Threshold for max BLB element          0.100E-03
      Level shift parameter                  0.500E+00
      Make Quasi-Newton update
--
 
      The MO-coefficients are taken from the file:
      /home/grierjones/DDCASPT2/ozone/ANO-RCC-VDZP/ozone_151.00/ozone_151.00.RasOrb                                                   
      Title: RASSCF average (pseudo-natural) orbitals                                      
 
      Total molecular charge    0.00
 
      ************************************************************************************************************************
      *                                                                                                                      *
      *                                            Wave function control section                                             *
      *                                                                                                                      *
      ************************************************************************************************************************
 
 
                                         RASSCF iterations: Energy and convergence statistics
                                         ----------------------------------------------------
 
      Iter CI   SX   CI       RASSCF       Energy    max ROT     max BLB   max BLB  Level Ln srch  Step   QN   Walltime
          iter iter root      energy       change     param      element    value   shift minimum  type update hh:mm:ss
 Nr of preliminary CI iterations:   1
        1   1    3    1  -224.51408261    0.00E+00   0.13E-02    7  14 1 -0.30E-02*  0.20   0.00    SX    NO    0:00:00
        2   1    3    1  -224.51410428   -0.22E-04* -0.72E-03    7  14 1 -0.17E-02*  0.20   0.00    SX    NO    0:00:00
        3   1    3    1  -224.51410894   -0.47E-05*  0.49E-03    7  14 1 -0.11E-02*  0.20   0.00    SX    NO    0:00:00
        4   1    3    1  -224.51411052   -0.16E-05* -0.24E-03    7  14 1 -0.56E-03*  0.20   0.00    SX    NO    0:00:00
        5   1    3    1  -224.51411095   -0.43E-06*  0.69E-03    7  14 1 -0.44E-03*  0.20   2.19    QN   YES    0:00:00
        6   1    3    1  -224.51411114   -0.19E-06* -0.32E-03    7  14 1  0.40E-03*  0.20   0.63    QN   YES    0:00:00
        7   1    3    1  -224.51411125   -0.11E-06* -0.50E-04    8  19 1  0.23E-03*  0.20   0.66    QN   YES    0:00:00
        8   1    3    1  -224.51411127   -0.19E-07* -0.10E-04    7  14 1  0.18E-04   0.20   0.79    QN   YES    0:00:00
        9   1    3    1  -224.51411127   -0.16E-09  -0.17E-04    8  19 1  0.46E-04   0.20   0.52    QN   YES    0:00:00
      Convergence after  9 iterations
 
  Dmat in MO in SXCTL bf call to SXHAM                                                                                    
  mat. size =     3x    3
 
        1.9885155831534131
        0.0000000000019776      1.7121262636236105
        0.0022807915513455      0.0000000000038225      0.2993581532229745
       10   1    3    1  -224.51411127   -0.56E-09  -0.17E-04    7  14 1 -0.30E-04   0.20   0.52    QN   YES    0:00:00
 
      ************************************************************************************************************************
                                                      Wave function printout:
                       occupation of active orbitals, and spin coupling of open shells (u,d: Spin up or down)
      ************************************************************************************************************************
 
      Note: transformation to natural orbitals
      has been made, which may change the order of the CSFs.
 
      printout of CI-coefficients larger than  0.05 for root  1
      energy=    -224.514111
      conf/sym  111     Coeff  Weight
             1  220  -0.92213 0.85032
             3  202   0.37939 0.14394
             6  022   0.07577 0.00574
 
      Natural orbitals and occupation numbers for root  1
      sym 1:   1.988519   1.712126   0.299355
 
      ************************************************************************************************************************
      *                                                                                                                      *
      *                                                    Final results                                                     *
      *                                                                                                                      *
      ************************************************************************************************************************
 
 
++    Wave function specifications:
      -----------------------------
 
      Number of closed shell electrons          20
      Number of electrons in active shells       4
      Max number of holes in RAS1 space          0
      Max nr of electrons in RAS3 space          0
      Number of inactive orbitals               10
      Number of active orbitals                  3
      Number of secondary orbitals              29
      Spin quantum number                      0.0
      State symmetry                             1
--
 
++    Orbital specifications:
      -----------------------
 
      Symmetry species                           1
                                                 a
      Frozen orbitals                            0
      Inactive orbitals                         10
      Active orbitals                            3
      RAS1 orbitals                              0
      RAS2 orbitals                              3
      RAS3 orbitals                              0
      Secondary orbitals                        29
      Deleted orbitals                           0
      Number of basis functions                 42
--
 
++    CI expansion specifications:
      ----------------------------
 
      Number of CSFs                             6
      Number of determinants                     6
      Number of root(s) required                 1
      CI root used                               1
      highest root included in the CI            1
      Root passed to geometry opt.               1
--
 
++    Final optimization conditions:
      ------------------------------
 
      Average CI energy                            -224.51411127
      RASSCF energy for state  1                   -224.51411127
      Super-CI energy                                -0.00000000
      RASSCF energy change                           -0.00000000
      Max change in MO coefficients               0.125E-04
      Max non-diagonal density matrix element    -0.170E-04
      Maximum BLB matrix element                 -0.297E-04
      (orbital pair   7,  14 in symmetry   1)
      Norm of electronic gradient            0.830E-04
--
 
 
      Final state energy(ies):
      ------------------------
 
::    RASSCF root number  1 Total energy:   -224.51411127
 
++    Molecular orbitals:
      -------------------
 
      Pseudonatural active orbitals and approximate occupation numbers
 
 
 
 
      Molecular orbitals for symmetry species 1: a  
 
 
      Orbital                1         2         3         4         5         6         7         8         9        10
      Energy          -20.7843  -20.7310  -20.7310   -1.6889   -1.4509   -1.0600   -0.7963   -0.7877   -0.6048   -0.4804
      Occ. No.          2.0000    2.0000    2.0000    2.0000    2.0000    2.0000    2.0000    2.0000    2.0000    2.0000
 
    1 O1     1s         0.0057   -0.7072    0.7072   -0.0149    0.0089    0.0136   -0.0054   -0.0178    0.0062    0.0026
    2 O1     2s         0.0001   -0.0007    0.0005    0.3441   -0.5893    0.6318   -0.1076   -0.3746    0.0747   -0.0011
    3 O1     3s        -0.0000   -0.0000   -0.0001   -0.0239    0.0120    0.0176   -0.0099   -0.0249    0.0075    0.0187
    4 O1     2px        0.0002    0.0002   -0.0001   -0.0226    0.0346    0.0678    0.3551   -0.2469   -0.6511    0.6434
    5 O1     3px        0.0003    0.0001    0.0001    0.0078   -0.0045   -0.0100   -0.0288    0.0134   -0.0028    0.0352
    6 O1     2py       -0.0001    0.0008   -0.0009   -0.1081    0.0882    0.1787   -0.1984   -0.3975    0.2733    0.0935
    7 O1     3py        0.0001   -0.0005    0.0003    0.0251   -0.0173   -0.0246    0.0143    0.0277    0.0012   -0.0199
    8 O1     2pz       -0.0000    0.0000   -0.0000   -0.0000   -0.0000   -0.0000   -0.0000   -0.0000    0.0000   -0.0000
    9 O1     3pz        0.0000    0.0000   -0.0000   -0.0000    0.0000   -0.0000    0.0000   -0.0000   -0.0000    0.0000
   10 O1     3d2-      -0.0000   -0.0000    0.0001    0.0055   -0.0080   -0.0070   -0.0164    0.0173    0.0101   -0.0006
   11 O1     3d1-      -0.0000    0.0000    0.0000    0.0000   -0.0000    0.0000    0.0000   -0.0000   -0.0000   -0.0000
   12 O1     3d0        0.0001    0.0001   -0.0002   -0.0097    0.0092    0.0064   -0.0058   -0.0162    0.0054    0.0039
   13 O1     3d1+       0.0000   -0.0000    0.0000    0.0000    0.0000   -0.0000    0.0000   -0.0000    0.0000   -0.0000
   14 O1     3d2+       0.0000   -0.0002    0.0001   -0.0172    0.0124    0.0128   -0.0184   -0.0252    0.0137    0.0094
   15 O2     1s         1.0000   -0.0000   -0.0083   -0.0225    0.0000   -0.0129   -0.0053    0.0000   -0.0000    0.0223
   16 O2     2s         0.0004   -0.0000   -0.0008    0.6398    0.0000   -0.6323   -0.0747   -0.0000   -0.0000    0.2890
   17 O2     3s        -0.0007   -0.0000   -0.0006   -0.0345    0.0000   -0.0151   -0.0063    0.0000   -0.0000    0.0421
   18 O2     2px        0.0006   -0.0000   -0.0001    0.0695   -0.0000    0.0958    0.6643    0.0000   -0.0000   -0.6866
   19 O2     3px       -0.0011   -0.0000   -0.0002   -0.0154    0.0000   -0.0109   -0.0441   -0.0000    0.0000   -0.0480
   20 O2     2py       -0.0000    0.0009   -0.0000    0.0000   -0.2994   -0.0000   -0.0000    0.4908   -0.1298    0.0000
   21 O2     3py       -0.0000    0.0011   -0.0000   -0.0000    0.0769   -0.0000    0.0000   -0.0765   -0.0002    0.0000
   22 O2     2pz        0.0000   -0.0000   -0.0000   -0.0000   -0.0000   -0.0000    0.0000   -0.0000    0.0000    0.0000
   23 O2     3pz       -0.0000   -0.0000    0.0000    0.0000   -0.0000    0.0000    0.0000    0.0000    0.0000    0.0000
   24 O2     3d2-      -0.0000    0.0001   -0.0000    0.0000   -0.0257   -0.0000   -0.0000    0.0193   -0.0398    0.0000
   25 O2     3d1-       0.0000   -0.0000    0.0000    0.0000   -0.0000    0.0000    0.0000   -0.0000   -0.0000   -0.0000
   26 O2     3d0       -0.0001    0.0000    0.0003   -0.0174    0.0000   -0.0020   -0.0127   -0.0000   -0.0000    0.0215
   27 O2     3d1+       0.0000   -0.0000   -0.0000   -0.0000    0.0000    0.0000    0.0000    0.0000    0.0000    0.0000
   28 O2     3d2+       0.0000    0.0000    0.0003   -0.0260    0.0000   -0.0002    0.0160    0.0000   -0.0000    0.0263
   29 O3     1s         0.0057    0.7072    0.7072   -0.0149   -0.0089    0.0136   -0.0054    0.0178   -0.0062    0.0026
   30 O3     2s         0.0001    0.0007    0.0005    0.3441    0.5893    0.6318   -0.1076    0.3746   -0.0747   -0.0011
   31 O3     3s        -0.0000    0.0000   -0.0001   -0.0239   -0.0120    0.0176   -0.0099    0.0249   -0.0075    0.0187
   32 O3     2px        0.0002   -0.0002   -0.0001   -0.0226   -0.0346    0.0678    0.3551    0.2469    0.6511    0.6434
   33 O3     3px        0.0003   -0.0001    0.0001    0.0078    0.0045   -0.0100   -0.0288   -0.0134    0.0028    0.0352
   34 O3     2py        0.0001    0.0008    0.0009    0.1081    0.0882   -0.1787    0.1984   -0.3975    0.2733   -0.0935
   35 O3     3py       -0.0001   -0.0005   -0.0003   -0.0251   -0.0173    0.0246   -0.0143    0.0277    0.0012    0.0199
   36 O3     2pz        0.0000   -0.0000   -0.0000   -0.0000    0.0000   -0.0000   -0.0000   -0.0000   -0.0000   -0.0000
   37 O3     3pz        0.0000    0.0000    0.0000   -0.0000    0.0000   -0.0000   -0.0000    0.0000   -0.0000   -0.0000
   38 O3     3d2-       0.0000   -0.0000   -0.0001   -0.0055   -0.0080    0.0070    0.0164    0.0173    0.0101    0.0006
   39 O3     3d1-       0.0000    0.0000    0.0000    0.0000    0.0000   -0.0000    0.0000   -0.0000    0.0000   -0.0000
   40 O3     3d0        0.0001   -0.0001   -0.0002   -0.0097   -0.0092    0.0064   -0.0058    0.0162   -0.0054    0.0039
   41 O3     3d1+      -0.0000    0.0000    0.0000    0.0000    0.0000    0.0000   -0.0000    0.0000    0.0000    0.0000
   42 O3     3d2+       0.0000    0.0002    0.0001   -0.0172   -0.0124    0.0128   -0.0184    0.0252   -0.0137    0.0094
 
 
      Orbital               11        12        13        14        15        16        17        18        19        20
      Energy            0.0000    0.0000    0.0000    0.1833    0.2894    0.4654    0.4673    0.5353    0.6270    0.6847
      Occ. No.          1.9885    1.7121    0.2994    0.0000    0.0000    0.0000    0.0000    0.0000    0.0000    0.0000
 
    1 O1     1s        -0.0000    0.0000   -0.0000   -0.0350   -0.1580   -0.0000   -0.0293    0.0271   -0.0330    0.0067
    2 O1     2s        -0.0000   -0.0000   -0.0000   -0.3934   -1.1524   -0.0000   -0.1940    0.1923   -0.0837    0.0109
    3 O1     3s        -0.0000   -0.0000   -0.0000   -0.0364   -0.4060   -0.0000   -0.1148    0.2081   -0.1137    0.0461
    4 O1     2px        0.0000   -0.0000    0.0000   -0.0136    0.2347   -0.0000   -0.0380   -0.1007   -0.1290   -0.0507
    5 O1     3px        0.0000    0.0000   -0.0000   -0.0028    0.1898    0.0000    0.4530    0.1402   -0.1836   -0.8081
    6 O1     2py       -0.0000    0.0000    0.0000    0.8061    0.5538    0.0000    0.1053   -0.1911   -0.4342    0.1270
    7 O1     3py        0.0000    0.0000    0.0000    0.2238    0.6222    0.0000    0.2610   -0.7807    0.1230   -0.0500
    8 O1     2pz        0.2995   -0.7059    0.6785    0.0000   -0.0000    0.0133    0.0000    0.0000   -0.0000    0.0000
    9 O1     3pz       -0.0296   -0.0086   -0.0539    0.0000   -0.0000    0.4836   -0.0000   -0.0000   -0.0000    0.0000
   10 O1     3d2-      -0.0000   -0.0000    0.0000   -0.0087   -0.0159    0.0000    0.0193   -0.0091   -0.0766   -0.0008
   11 O1     3d1-      -0.0288    0.0192    0.0070   -0.0000   -0.0000    0.0325   -0.0000   -0.0000    0.0000    0.0000
   12 O1     3d0       -0.0000    0.0000    0.0000   -0.0017    0.0179    0.0000    0.0108    0.0037    0.0592   -0.0176
   13 O1     3d1+      -0.0063    0.0034    0.0015    0.0000    0.0000    0.0102   -0.0000   -0.0000   -0.0000    0.0000
   14 O1     3d2+      -0.0000    0.0000    0.0000   -0.0111    0.0273    0.0000    0.0359    0.0007    0.0753   -0.0218
   15 O2     1s        -0.0000    0.0000    0.0000    0.1264   -0.0000    0.0000    0.0862   -0.1548   -0.0000    0.0000
   16 O2     2s        -0.0000    0.0000    0.0000    1.1610   -0.0000    0.0000    0.5189   -0.9023   -0.0000    0.0000
   17 O2     3s        -0.0000    0.0000    0.0000    0.2787   -0.0000    0.0000    0.2275   -0.3007   -0.0000    0.0000
   18 O2     2px        0.0000   -0.0000   -0.0000    0.5118   -0.0000   -0.0000   -0.0876   -0.0905   -0.0000    0.0000
   19 O2     3px       -0.0000    0.0000    0.0000    0.1372   -0.0000    0.0000    0.4553   -0.0741   -0.0000   -0.0000
   20 O2     2py        0.0000    0.0000    0.0000    0.0000    1.3060    0.0000   -0.0000   -0.0000   -0.4340    0.1260
   21 O2     3py        0.0000   -0.0000    0.0000    0.0000    1.0708    0.0000   -0.0000   -0.0000    0.6901   -0.1673
   22 O2     2pz        0.7862   -0.0000   -0.6610    0.0000    0.0000   -0.2637    0.0000    0.0000    0.0000    0.0000
   23 O2     3pz       -0.0100   -0.0000   -0.0729   -0.0000    0.0000    0.3519   -0.0000   -0.0000    0.0000    0.0000
   24 O2     3d2-       0.0000   -0.0000   -0.0000    0.0000    0.0392   -0.0000    0.0000   -0.0000    0.0708    0.0158
   25 O2     3d1-      -0.0000   -0.0444    0.0000    0.0000    0.0000    0.0000   -0.0000   -0.0000    0.0000   -0.0000
   26 O2     3d0        0.0000   -0.0000   -0.0000    0.0307   -0.0000   -0.0000   -0.0423    0.0961   -0.0000    0.0000
   27 O2     3d1+       0.0228   -0.0000   -0.0119    0.0000    0.0000   -0.0215    0.0000    0.0000   -0.0000    0.0000
   28 O2     3d2+       0.0000   -0.0000   -0.0000    0.0537   -0.0000   -0.0000   -0.0970    0.1210   -0.0000    0.0000
   29 O3     1s         0.0000   -0.0000    0.0000   -0.0350    0.1580   -0.0000   -0.0293    0.0271    0.0330   -0.0067
   30 O3     2s         0.0000   -0.0000    0.0000   -0.3934    1.1524   -0.0000   -0.1940    0.1923    0.0837   -0.0109
   31 O3     3s         0.0000    0.0000    0.0000   -0.0364    0.4060   -0.0000   -0.1148    0.2081    0.1137   -0.0461
   32 O3     2px       -0.0000    0.0000    0.0000   -0.0136   -0.2347   -0.0000   -0.0380   -0.1007    0.1290    0.0507
   33 O3     3px       -0.0000   -0.0000   -0.0000   -0.0028   -0.1898    0.0000    0.4530    0.1402    0.1836    0.8081
   34 O3     2py        0.0000    0.0000   -0.0000   -0.8061    0.5538   -0.0000   -0.1053    0.1911   -0.4342    0.1270
   35 O3     3py        0.0000    0.0000    0.0000   -0.2238    0.6222   -0.0000   -0.2610    0.7807    0.1230   -0.0500
   36 O3     2pz        0.2995    0.7059    0.6785    0.0000   -0.0000    0.0133   -0.0000    0.0000    0.0000   -0.0000
   37 O3     3pz       -0.0296    0.0086   -0.0539    0.0000   -0.0000    0.4836   -0.0000   -0.0000    0.0000   -0.0000
   38 O3     3d2-       0.0000    0.0000   -0.0000    0.0087   -0.0159   -0.0000   -0.0193    0.0091   -0.0766   -0.0008
   39 O3     3d1-       0.0288    0.0192   -0.0070    0.0000    0.0000   -0.0325    0.0000    0.0000   -0.0000    0.0000
   40 O3     3d0        0.0000    0.0000    0.0000   -0.0017   -0.0179    0.0000    0.0108    0.0037   -0.0592    0.0176
   41 O3     3d1+      -0.0063   -0.0034    0.0015    0.0000    0.0000    0.0102   -0.0000    0.0000   -0.0000   -0.0000
   42 O3     3d2+      -0.0000   -0.0000   -0.0000   -0.0111   -0.0273    0.0000    0.0359    0.0007   -0.0753    0.0218
 
 
      Orbital               21        22        23        24        25        26        27        28        29        30
      Energy            0.6913    0.8538    0.9777    1.0015    1.0261    1.6906    1.7216    1.7233    1.7646    1.9885
      Occ. No.          0.0000    0.0000    0.0000    0.0000    0.0000    0.0000    0.0000    0.0000    0.0000    0.0000
 
    1 O1     1s        -0.0000   -0.0192   -0.0289    0.0000    0.0918   -0.0000   -0.0048    0.0000   -0.1008   -0.1001
    2 O1     2s         0.0000   -0.1026   -0.1559    0.0000    0.5311    0.0000   -0.0380    0.0000   -0.7411   -0.7656
    3 O1     3s         0.0000    0.4578   -0.0450    0.0000   -0.0102    0.0000   -0.0384    0.0000   -0.9922   -0.8880
    4 O1     2px       -0.0000   -0.0099   -0.4427   -0.0000   -0.1939   -0.0000    0.0704   -0.0000    0.2082    0.0846
    5 O1     3px       -0.0000    0.0365   -0.8676   -0.0000   -0.1864   -0.0000    0.0393   -0.0000    0.1203    0.1474
    6 O1     2py        0.0000   -0.0309    0.0556   -0.0000    0.0386   -0.0000    0.0155   -0.0000    0.2223    0.5101
    7 O1     3py       -0.0000    0.3115    0.0164    0.0000    0.6827   -0.0000    0.0202   -0.0000    0.2857    0.5461
    8 O1     2pz       -0.0914   -0.0000    0.0000    0.4913   -0.0000   -0.1745   -0.0000   -0.0627   -0.0000    0.0000
    9 O1     3pz       -0.8334   -0.0000    0.0000    0.8951   -0.0000    0.0274   -0.0000   -0.0450   -0.0000    0.0000
   10 O1     3d2-       0.0000   -0.0478   -0.0432   -0.0000   -0.0137   -0.0000    0.2324   -0.0000    0.3010   -0.1608
   11 O1     3d1-      -0.0279   -0.0000    0.0000    0.0207   -0.0000   -0.4124   -0.0000   -0.2416   -0.0000    0.0000
   12 O1     3d0       -0.0000    0.0470    0.0452   -0.0000   -0.0667   -0.0000    0.3573   -0.0000   -0.1065    0.0356
   13 O1     3d1+      -0.0011    0.0000   -0.0000    0.0278   -0.0000   -0.1905    0.0000    0.3715    0.0000    0.0000
   14 O1     3d2+      -0.0000    0.0623    0.0181   -0.0000   -0.1345    0.0000   -0.1196    0.0000    0.1680   -0.1637
   15 O2     1s         0.0000    0.0124   -0.0149   -0.0000   -0.0000    0.0000    0.0119   -0.0000   -0.0000    0.2525
   16 O2     2s         0.0000    0.0633   -0.0485   -0.0000   -0.0000   -0.0000    0.0865   -0.0000   -0.0000    1.7952
   17 O2     3s        -0.0000    0.5616   -0.0182   -0.0000   -0.0000   -0.0000    0.0928   -0.0000   -0.0000    1.7738
   18 O2     2px        0.0000   -0.0054    0.6374   -0.0000    0.0000   -0.0000    0.0625   -0.0000   -0.0000    0.0964
   19 O2     3px       -0.0000   -0.0374    1.5771   -0.0000    0.0000   -0.0000   -0.0733    0.0000   -0.0000    0.1441
   20 O2     2py        0.0000    0.0000    0.0000   -0.0000   -0.7687   -0.0000   -0.0000   -0.0000    0.7242   -0.0000
   21 O2     3py       -0.0000    0.0000    0.0000   -0.0000   -1.0803   -0.0000   -0.0000   -0.0000    0.8794   -0.0000
   22 O2     2pz       -0.0000    0.0000    0.0000   -0.6669    0.0000    0.0000   -0.0000   -0.0553   -0.0000   -0.0000
   23 O2     3pz       -0.0000    0.0000   -0.0000   -1.6312    0.0000    0.0000    0.0000    0.0996   -0.0000   -0.0000
   24 O2     3d2-       0.0000   -0.0000   -0.0000    0.0000    0.1729    0.0000    0.0000    0.0000   -0.3470   -0.0000
   25 O2     3d1-       0.0769    0.0000    0.0000   -0.0000    0.0000    0.5771    0.0000    0.0000    0.0000    0.0000
   26 O2     3d0       -0.0000    0.0490    0.0685   -0.0000   -0.0000   -0.0000    0.5456   -0.0000   -0.0000    0.1053
   27 O2     3d1+       0.0000    0.0000   -0.0000    0.0443   -0.0000   -0.0000    0.0000    0.6514    0.0000   -0.0000
   28 O2     3d2+      -0.0000    0.0695    0.0316    0.0000   -0.0000    0.0000   -0.3543    0.0000   -0.0000    0.2186
   29 O3     1s        -0.0000   -0.0192   -0.0289   -0.0000   -0.0918    0.0000   -0.0048    0.0000    0.1008   -0.1001
   30 O3     2s        -0.0000   -0.1026   -0.1559   -0.0000   -0.5311   -0.0000   -0.0380   -0.0000    0.7411   -0.7656
   31 O3     3s        -0.0000    0.4578   -0.0450    0.0000    0.0102   -0.0000   -0.0384   -0.0000    0.9922   -0.8880
   32 O3     2px        0.0000   -0.0099   -0.4427    0.0000    0.1939    0.0000    0.0704   -0.0000   -0.2082    0.0846
   33 O3     3px        0.0000    0.0365   -0.8676    0.0000    0.1864    0.0000    0.0393   -0.0000   -0.1203    0.1474
   34 O3     2py        0.0000    0.0309   -0.0556    0.0000    0.0386   -0.0000   -0.0155   -0.0000    0.2223   -0.5101
   35 O3     3py       -0.0000   -0.3115   -0.0164    0.0000    0.6827   -0.0000   -0.0202   -0.0000    0.2857   -0.5461
   36 O3     2pz        0.0914   -0.0000   -0.0000    0.4913   -0.0000    0.1745   -0.0000   -0.0627   -0.0000   -0.0000
   37 O3     3pz        0.8334   -0.0000    0.0000    0.8951   -0.0000   -0.0274   -0.0000   -0.0450    0.0000   -0.0000
   38 O3     3d2-      -0.0000    0.0478    0.0432   -0.0000   -0.0137   -0.0000   -0.2324    0.0000    0.3010    0.1608
   39 O3     3d1-      -0.0279   -0.0000   -0.0000   -0.0207    0.0000   -0.4124    0.0000    0.2416   -0.0000   -0.0000
   40 O3     3d0        0.0000    0.0470    0.0452    0.0000    0.0667   -0.0000    0.3573   -0.0000    0.1065    0.0356
   41 O3     3d1+       0.0011   -0.0000   -0.0000    0.0278   -0.0000    0.1905    0.0000    0.3715    0.0000   -0.0000
   42 O3     3d2+       0.0000    0.0623    0.0181    0.0000    0.1345    0.0000   -0.1196    0.0000   -0.1680   -0.1637
 
 
      Orbital               31        32        33        34        35        36        37        38        39        40
      Energy            2.0526    2.1051    2.1235    2.3709    2.3758    2.6527    2.8354    2.8771    2.9651    3.5407
      Occ. No.          0.0000    0.0000    0.0000    0.0000    0.0000    0.0000    0.0000    0.0000    0.0000    0.0000
 
    1 O1     1s        -0.2195   -0.0000   -0.1108    0.0642   -0.0000    0.0390   -0.0000   -0.0790    0.0346   -0.0577
    2 O1     2s        -1.4777   -0.0000   -0.7350    0.4287   -0.0000    0.1465   -0.0000   -0.5965    0.3775   -0.3698
    3 O1     3s        -1.2284   -0.0000   -0.5546    0.2848   -0.0000   -0.1428   -0.0000   -0.4976    0.4693   -0.1547
    4 O1     2px        0.1936    0.0000    0.0989    0.0518   -0.0000    0.1013   -0.0000   -0.1928   -0.1384   -0.2207
    5 O1     3px        0.2400    0.0000    0.1586    0.1920   -0.0000    0.2310   -0.0000   -0.2821   -0.1062   -0.1766
    6 O1     2py        0.4970    0.0000    0.2397   -0.2567    0.0000    0.0146    0.0000    0.4747   -0.3981    0.3242
    7 O1     3py        0.0166    0.0000   -0.0422   -0.1457    0.0000    0.2296    0.0000    0.3813   -0.4094    0.0905
    8 O1     2pz       -0.0000    0.0031   -0.0000   -0.0000   -0.1105   -0.0000   -0.3282    0.0000   -0.0000   -0.0000
    9 O1     3pz       -0.0000   -0.0349    0.0000   -0.0000   -0.2088   -0.0000   -0.4272    0.0000    0.0000   -0.0000
   10 O1     3d2-      -0.1330   -0.0000   -0.3689   -0.2430    0.0000   -0.4017    0.0000    0.4442    0.4503    0.4312
   11 O1     3d1-      -0.0000    0.2699   -0.0000    0.0000    0.2767    0.0000    0.7285   -0.0000   -0.0000    0.0000
   12 O1     3d0        0.2966   -0.0000   -0.5249    0.4915   -0.0000    0.1038    0.0000    0.3493   -0.4094    0.0713
   13 O1     3d1+       0.0000   -0.6575    0.0000    0.0000    0.6148    0.0000   -0.0698    0.0000   -0.0000    0.0000
   14 O1     3d2+      -0.2853    0.0000    0.1504   -0.3172    0.0000    0.4663    0.0000    0.5001   -0.5205    0.5080
   15 O2     1s         0.0000    0.0000    0.0000   -0.0710    0.0000    0.1285    0.0000    0.2103   -0.0000    0.0000
   16 O2     2s         0.0000    0.0000    0.0000   -0.6061    0.0000    0.6091    0.0000    1.4155   -0.0000    0.0000
   17 O2     3s         0.0000    0.0000    0.0000   -0.7243    0.0000   -0.1750    0.0000    0.8788   -0.0000   -0.0000
   18 O2     2px        0.0000    0.0000    0.0000   -0.4729    0.0000   -0.1701    0.0000    0.8486   -0.0000    0.0000
   19 O2     3px        0.0000    0.0000    0.0000   -0.4436    0.0000   -0.3843    0.0000    0.7050   -0.0000    0.0000
   20 O2     2py        1.6143    0.0000    0.8290   -0.0000   -0.0000    0.0000   -0.0000   -0.0000   -0.7863    0.3473
   21 O2     3py        1.7491    0.0000    0.8822   -0.0000   -0.0000    0.0000   -0.0000    0.0000    0.1963    0.0742
   22 O2     2pz       -0.0000    0.0000   -0.0000    0.0000    0.4091    0.0000    0.7451   -0.0000   -0.0000   -0.0000
   23 O2     3pz        0.0000    0.0000   -0.0000    0.0000    0.3300    0.0000    0.7419   -0.0000   -0.0000   -0.0000
   24 O2     3d2-       0.3771    0.0000    0.2303   -0.0000   -0.0000    0.0000    0.0000    0.0000    0.1526    1.1069
   25 O2     3d1-       0.0000   -0.0339    0.0000    0.0000   -0.0000   -0.0000   -0.0000   -0.0000    0.0000    0.0000
   26 O2     3d0        0.0000    0.0000   -0.0000   -0.3296    0.0000    0.5492   -0.0000   -0.4305    0.0000   -0.0000
   27 O2     3d1+      -0.0000   -0.0000    0.0000   -0.0000   -0.4959   -0.0000    0.6470   -0.0000   -0.0000   -0.0000
   28 O2     3d2+       0.0000   -0.0000    0.0000    0.3433   -0.0000    0.1831    0.0000    0.3705   -0.0000   -0.0000
   29 O3     1s         0.2195    0.0000    0.1108    0.0642   -0.0000    0.0390    0.0000   -0.0790   -0.0346    0.0577
   30 O3     2s         1.4777    0.0000    0.7350    0.4287   -0.0000    0.1465   -0.0000   -0.5965   -0.3775    0.3698
   31 O3     3s         1.2284    0.0000    0.5546    0.2848   -0.0000   -0.1428   -0.0000   -0.4976   -0.4693    0.1547
   32 O3     2px       -0.1936   -0.0000   -0.0989    0.0518   -0.0000    0.1013   -0.0000   -0.1928    0.1384    0.2207
   33 O3     3px       -0.2400   -0.0000   -0.1586    0.1920   -0.0000    0.2310   -0.0000   -0.2821    0.1062    0.1766
   34 O3     2py        0.4970    0.0000    0.2397    0.2567   -0.0000   -0.0146   -0.0000   -0.4747   -0.3981    0.3242
   35 O3     3py        0.0166   -0.0000   -0.0422    0.1457   -0.0000   -0.2296   -0.0000   -0.3813   -0.4094    0.0905
   36 O3     2pz        0.0000   -0.0031   -0.0000   -0.0000   -0.1105    0.0000   -0.3282    0.0000    0.0000    0.0000
   37 O3     3pz       -0.0000    0.0349   -0.0000   -0.0000   -0.2088   -0.0000   -0.4272    0.0000    0.0000    0.0000
   38 O3     3d2-      -0.1330   -0.0000   -0.3689    0.2430   -0.0000    0.4017   -0.0000   -0.4442    0.4503    0.4312
   39 O3     3d1-      -0.0000    0.2699   -0.0000   -0.0000   -0.2767   -0.0000   -0.7285    0.0000    0.0000    0.0000
   40 O3     3d0       -0.2966    0.0000    0.5249    0.4915   -0.0000    0.1038    0.0000    0.3493    0.4094   -0.0713
   41 O3     3d1+      -0.0000    0.6575   -0.0000    0.0000    0.6148    0.0000   -0.0698    0.0000    0.0000   -0.0000
   42 O3     3d2+       0.2853    0.0000   -0.1504   -0.3172    0.0000    0.4663    0.0000    0.5001    0.5205   -0.5080
 
 
      Orbital               41        42
      Energy            3.5433    4.2917
      Occ. No.          0.0000    0.0000
 
    1 O1     1s         0.0000    0.2164
    2 O1     2s         0.0000    1.4367
    3 O1     3s         0.0000    0.7372
    4 O1     2px        0.0000   -0.4131
    5 O1     3px        0.0000   -0.1936
    6 O1     2py       -0.0000   -1.0081
    7 O1     3py       -0.0000   -0.4309
    8 O1     2pz       -0.3245   -0.0000
    9 O1     3pz       -0.2068    0.0000
   10 O1     3d2-      -0.0000    0.4973
   11 O1     3d1-       0.6411   -0.0000
   12 O1     3d0       -0.0000   -0.3331
   13 O1     3d1+       0.2269    0.0000
   14 O1     3d2+      -0.0000   -0.3662
   15 O2     1s        -0.0000   -0.3974
   16 O2     2s         0.0000   -2.7977
   17 O2     3s         0.0000   -1.7828
   18 O2     2px       -0.0000   -0.2235
   19 O2     3px        0.0000    0.0141
   20 O2     2py       -0.0000    0.0000
   21 O2     3py       -0.0000    0.0000
   22 O2     2pz        0.0000   -0.0000
   23 O2     3pz        0.0000   -0.0000
   24 O2     3d2-      -0.0000    0.0000
   25 O2     3d1-       1.0889   -0.0000
   26 O2     3d0        0.0000    0.6622
   27 O2     3d1+       0.0000   -0.0000
   28 O2     3d2+       0.0000    1.1851
   29 O3     1s        -0.0000    0.2164
   30 O3     2s        -0.0000    1.4367
   31 O3     3s        -0.0000    0.7372
   32 O3     2px       -0.0000   -0.4131
   33 O3     3px       -0.0000   -0.1936
   34 O3     2py       -0.0000    1.0081
   35 O3     3py       -0.0000    0.4309
   36 O3     2pz        0.3245    0.0000
   37 O3     3pz        0.2068    0.0000
   38 O3     3d2-      -0.0000   -0.4973
   39 O3     3d1-       0.6411    0.0000
   40 O3     3d0        0.0000   -0.3331
   41 O3     3d1+      -0.2269   -0.0000
   42 O3     3d2+       0.0000   -0.3662
--
 
      Von Neumann Entropy (Root  1) =  0.61032
 

      Mulliken population analysis for root number:  1
      -----------------------------------------------
 
 
++    Molecular charges:
      ------------------
 
      Mulliken charges per centre and basis function type
      ---------------------------------------------------
 
                O1      O2      O3    
      1s       2.0003  2.0001  2.0003
      2s       1.9283  1.7106  1.9283
      2px      1.9735  1.7581  1.9735
      2pz      1.2292  1.5052  1.2292
      2py      0.8998  0.9207  0.8998
      3s      -0.0100 -0.0237 -0.0100
      3px     -0.0210 -0.0458 -0.0210
      3pz     -0.0093 -0.0080 -0.0093
      3py     -0.0076  0.0124 -0.0076
      3d2+     0.0191  0.0278  0.0191
      3d1+     0.0007  0.0026  0.0007
      3d0      0.0056  0.0082  0.0056
      3d1-     0.0140  0.0310  0.0140
      3d2-     0.0102  0.0349  0.0102
      Total    8.0329  7.9341  8.0329
 
      N-E     -0.0329  0.0659 -0.0329
 
      Total electronic charge=   24.000000
 
      Total            charge=   -0.000000
--
 
 

      Expectation values of various properties for root number:  1
      -----------------------------------------------------------
 
 
++    Molecular properties:
      ---------------------
 
      Charge (e):
                      =   -0.0000
      Dipole Moment (Debye):
      Origin of the operator (Ang)=    0.0000    0.0000    0.0000
                   X=  1.9777E-01               Y= -2.2395E-12               Z=  2.2588E-13           Total=  1.9777E-01
      Quadrupole Moment (Debye*Ang):
      Origin of the operator (Ang)=    0.2097    0.0000    0.0000
                  XX= -1.6484E+01              XY=  1.8218E-14              XZ=  1.7679E-13              YY= -1.6100E+01
                  YZ=  4.5691E-13              ZZ= -1.4732E+01
      In traceless form (Debye*Ang)
                  XX= -1.0676E+00              XY=  2.7327E-14              XZ=  2.6519E-13              YY= -4.9273E-01
                  YZ=  6.8537E-13              ZZ=  1.5603E+00
--
 

      LoProp population analysis for root number:  1
      -----------------------------------------------
 
 
++    LoProp analysis:
      ----------------
 
 
 
  Input file to MOLDEN was generated!
 
 
++    Static properties:
      ------------------
 
 
      LoProp Charges per center
 

                   O1       O2       O3    
      Nuclear      8.0000   8.0000   8.0000
      Electronic  -8.0642  -7.8716  -8.0642
 
      Total       -0.0642   0.1284  -0.0642
--
 
 
      Natural Bond Order analysis for root number:  1
 
++    Natural Bond Order analysis
      ---------------------------
      Based on LoProp computed density
      -------------------------------------------------------------------------------------
      Atom A       Atom B       Bond Order | Atom A       Atom B       Bond Order
        O1           O2             1.968  |   O2           O3             1.968
      -------------------------------------------------------------------------------------
      NBO located     12.000 core electrons.
      NBO located      3.978 lone pair electrons.
      NBO located      7.870 electrons involved in    2 bonds.
      The remaining    0.151 electrons are to be considered as diffuse
--
 
--
 
 
  Input file to MOLDEN was generated!
 
      Average orbitals are written to the RASORB file
      Natural orbitals for root   1 are written to the RASORB.1 file
      Spin density orbitals for root   1 are written to the SPDORB.1 file
 
--- Stop Module: rasscf at Wed Nov 13 12:57:35 2024 /rc=_RC_ALL_IS_WELL_ ---
*** files: ozone_151.50.LprOrb ozone_151.50.rasscf.molden ozone_151.50.LoProp.molden ozone_151.50.RasOrb ozone_151.50.RasOrb.1 ozone_151.50.rasscf.h5 ozone_151.50.SpdOrb.1 xmldump
    saved to directory /home/grierjones/DDCASPT2/ozone/ANO-RCC-VDZP/ozone_151.50

>>> COPY /tmp/ozone_151.50/ozone_151.50.rasscf.h5 /home/grierjones/DDCASPT2/ozone/ANO-RCC-VDZP/ozone_151.50/

>>> COPY /tmp/ozone_151.50/GMJ_Fock_MO.csv /home/grierjones/DDCASPT2/ozone/ANO-RCC-VDZP/ozone_151.50/ozone_151.50.GMJ_Fock_MO.csv

>>> COPY /tmp/ozone_151.50/GMJ_PT2_Fock_MO.csv /home/grierjones/DDCASPT2/ozone/ANO-RCC-VDZP/ozone_151.50/ozone_151.50.GMJ_PT2_Fock_MO.csv

*** symbolic link created: INPORB -> ozone_151.50.RasOrb
--- Start Module: motra at Wed Nov 13 12:57:35 2024 ---
 
()()()()()()()()()()()()()()()()()()()()()()()()()()()()()()()()()()()()()()()()()()()()()()()()()()

                                               &MOTRA

                                   only a single process is used
                       available to each process: 2.0 GB of memory, 1 thread?
()()()()()()()()()()()()()()()()()()()()()()()()()()()()()()()()()()()()()()()()()()()()()()()()()()
 
 
      *** WARNING: Default frozen orbitals is overwritten by user input.
      *** Default values:   3
 
      Header of the integral files:
      
       Integrals generated by seward 4.2.0  , Wed Nov 13 12:57:33 2024
 
 
      Header of MO coefficients source file:
      * RASSCF average (pseudo-natural) orbitals                                      
 
 
      Cartesian coordinates in Angstrom:
      -----------------------------------------------------
      No.  Label        X            Y            Z        
      -----------------------------------------------------
       1   O1         0.31458400   1.23867700   0.00000000
       2   O2         0.00000000   0.00000000   0.00000000
       3   O3         0.31458400  -1.23867700   0.00000000
      -----------------------------------------------------
      Nuclear repulsion energy =   66.67130951
 
      Orbital specifications:
      -----------------------
 
      Symmetry species:              1
      Number of basis functions:    42
      Frozen orbitals:               0
      Deleted orbitals:              0
      Number of orbitals used:      42

       SYMMETRY  BASIS FUNCTIONS       ORBITALS      INTEGRALS   CPU(SEC)  I/O(SEC)
 
        1 1 1 1   42  42  42  42    42  42  42  42      408156       0.00      0.00

       TOTAL CPU TIME(SEC)    0.21TOTAL I/O TIME(SEC)    0.51
 
--- Stop Module: motra at Wed Nov 13 12:57:35 2024 /rc=_RC_ALL_IS_WELL_ ---
*** files: xmldump
    saved to directory /home/grierjones/DDCASPT2/ozone/ANO-RCC-VDZP/ozone_151.50

>>> COPY /tmp/ozone_151.50/GMJ_one_int_indx.csv /home/grierjones/DDCASPT2/ozone/ANO-RCC-VDZP/ozone_151.50/ozone_151.50.GMJ_one_int_indx.csv

>>> COPY /tmp/ozone_151.50/GMJ_one_int.csv /home/grierjones/DDCASPT2/ozone/ANO-RCC-VDZP/ozone_151.50/ozone_151.50.GMJ_one_int.csv

>>> COPY /tmp/ozone_151.50/GMJ_two_int_indx.csv /home/grierjones/DDCASPT2/ozone/ANO-RCC-VDZP/ozone_151.50/ozone_151.50.GMJ_two_int_indx.csv

>>> COPY /tmp/ozone_151.50/GMJ_two_int.csv /home/grierjones/DDCASPT2/ozone/ANO-RCC-VDZP/ozone_151.50/ozone_151.50.GMJ_two_int.csv

*** symbolic link created: INPORB -> ozone_151.50.RasOrb
--- Start Module: caspt2 at Wed Nov 13 12:57:35 2024 ---
 
()()()()()()()()()()()()()()()()()()()()()()()()()()()()()()()()()()()()()()()()()()()()()()()()()()

                                              &CASPT2

                                   only a single process is used
                       available to each process: 2.0 GB of memory, 1 thread?
()()()()()()()()()()()()()()()()()()()()()()()()()()()()()()()()()()()()()()()()()()()()()()()()()()
 
 Cholesky algorithm in CASPT2 =    1
 
 ###############################################################################
 ###############################################################################
 ###                                                                         ###
 ###                                                                         ###
 ###    User changed nr of frozen orbitals.                                  ###
 ###                                                                         ###
 ###                                                                         ###
 ###############################################################################
 ###############################################################################
 
++    Wave function specifications:
      -----------------------------
 
      Number of closed shell electrons          20
      Number of electrons in active shells       4
      Max number of holes in RAS1 space          0
      Max number of electrons in RAS3 space      0
      Number of inactive orbitals               10
      Number of active orbitals                  3
      Number of secondary orbitals              29
      Spin quantum number                      0.0
      State symmetry                             1
      Number of CSFs                             6
      Number of root(s) available                1
      Root passed to geometry opt.               1
      A file JOBMIX will be created.
      This is a CASSCF or RASSCF reference function
--
 
++    Orbital specifications:
      -----------------------
 
      Symmetry species                           1
                                                 a
      Frozen orbitals                            0
      Inactive orbitals                         10
      Active orbitals                            3
      Secondary orbitals                        29
      Deleted orbitals                           0
      Number of basis functions                 42
--
 
      Type of Fock operator: STANDARD
      Type of 0-order Hamiltonian: STANDARD WITH DEFAULT IPEA
        "IP-EA" denominator shift =      0.25
      The input orbitals and the CI vector will be transformed.
 
--------------------------------------------------------------------------------
 Estimated memory requirements:
  POLY3 :                   250202
  RHS:                      279634
  SIGMA :                   302200
  PRPCTL:                        0
 Available workspace:    230396563
 
++ CASPT2 computation for group   1
 
********************************************************************************
 Multi-State initialization phase begins for group   1
--------------------------------------------------------------------------------
********************************************************************************
 Compute H0 matrices for state    1
--------------------------------------------------------------------------------
--------------------------------------------------------------------------------
 H0 matrices have been computed.
 
********************************************************************************
  CASPT2 EQUATION SOLUTION
--------------------------------------------------------------------------------
 
  Total nr of CASPT2 parameters:
   Before reduction:       86691
   After  reduction:       82880
 
 The contributions to the second order correlation energy in atomic units.
-----------------------------------------------------------------------------------------------------------------------------
  IT.      VJTU        VJTI        ATVX        AIVX        VJAI        BVAT        BJAT        BJAI        TOTAL       RNORM  
-----------------------------------------------------------------------------------------------------------------------------
   1    -0.000000   -0.001451   -0.014171   -0.099978   -0.017176   -0.016924   -0.123220   -0.268019   -0.540938    0.002164
   2    -0.000000   -0.001469   -0.014221   -0.100321   -0.017192   -0.016929   -0.123243   -0.268021   -0.541396    0.000174
   3    -0.000000   -0.001469   -0.014221   -0.100324   -0.017192   -0.016929   -0.123243   -0.268021   -0.541401    0.000023
   4    -0.000000   -0.001470   -0.014221   -0.100322   -0.017192   -0.016929   -0.123243   -0.268021   -0.541399    0.000003
-------------------------------------------------------------------------------------------------------------------
 
  FINAL CASPT2 RESULT:
 
  Correlation energy /Case, /Symm, and sums:
 VJTU     -0.00000000 -0.00000000
 VJTIP    -0.00146964 -0.00146964
 VJTIM     0.00000000  0.00000000
 ATVX     -0.01422083 -0.01422083
 AIVX     -0.10032231 -0.10032231
 VJAIP    -0.01197524 -0.01197524
 VJAIM    -0.00521691 -0.00521691
 BVATP    -0.01601864 -0.01601864
 BVATM    -0.00091019 -0.00091019
 BJATP    -0.04566626 -0.04566626
 BJATM    -0.07757693 -0.07757693
 BJAIP    -0.18031147 -0.18031147
 BJAIM    -0.08771002 -0.08771002
 Summed:  -0.54139845 -0.54139845
 
      Reference energy:        -224.5141112705
      E2 (Non-variational):      -0.5413984465
      E2 (Variational):          -0.5413984737
      Total energy:            -225.0555097443
      Residual norm:              0.0000002817
      Reference weight:           0.85343
 
      Contributions to the CASPT2 correlation energy
      Active & Virtual Only:         -0.0311496649
      One Inactive Excited:          -0.2235655010
      Two Inactive Excited:          -0.2866832806
 
 
++ Denominators, etc.
----------------------------------------------------------------------------------------------------
 Report on small energy denominators, large coefficients, and large energy contributions.
CASE  SYMM ACTIVE-MIX  NON-ACTIVE INDICES          DENOMINATOR     RHS VALUE       COEFFICIENT     CONTRIBUTION
ATVX     1  Mu1.0006  Se1.016                       1.89143006     -0.06670489      0.03596661     -0.00239915
ATVX     1  Mu1.0005  Se1.021                       1.84057499     -0.10247549      0.05458767     -0.00559390
ATVX     1  Mu1.0006  Se1.024                       2.42756386      0.06183867     -0.02553824     -0.00157925
ATVX     1  Mu1.0005  Se1.026                       2.83984684      0.07256242     -0.02563785     -0.00186034
AIVX     1  Mu1.0005  In1.004 Se1.014               2.65029384     -0.08124914      0.03066198     -0.00249126
AIVX     1  Mu1.0003  In1.005 Se1.014               2.06332484     -0.06525948      0.03119554     -0.00203580
AIVX     1  Mu1.0004  In1.006 Se1.014               1.85952401     -0.04667084      0.02532330     -0.00118186
AIVX     1  Mu1.0004  In1.007 Se1.014               1.59575552      0.06453081     -0.04084759     -0.00263593
AIVX     1  Mu1.0002  In1.008 Se1.014               1.30748275      0.09022668     -0.06838669     -0.00617030
AIVX     1  Mu1.0003  In1.008 Se1.014               1.40012105      0.04707468     -0.03335789     -0.00157031
AIVX     1  Mu1.0002  In1.009 Se1.014               1.12459679     -0.06083664      0.05343777     -0.00325097
AIVX     1  Mu1.0003  In1.009 Se1.014               1.21723509     -0.04049297      0.03296432     -0.00133482
AIVX     1  Mu1.0004  In1.010 Se1.017               1.56400478      0.05569066     -0.03554796     -0.00197969
AIVX     1  Mu1.0002  In1.009 Se1.018               1.47665571     -0.05516107      0.03641166     -0.00200851
AIVX     1  Mu1.0004  In1.008 Se1.019               2.03084698     -0.11747224      0.05826444     -0.00684445
AIVX     1  Mu1.0005  In1.008 Se1.019               2.19271499      0.07278896     -0.03342623     -0.00243306
AIVX     1  Mu1.0002  In1.010 Se1.020               1.50173710     -0.07498347      0.04864885     -0.00364786
AIVX     1  Mu1.0003  In1.010 Se1.020               1.59437540     -0.05014181      0.03053929     -0.00153130
AIVX     1  Mu1.0004  In1.006 Se1.022               2.53002806      0.06484317     -0.02562371     -0.00166152
BJAIP    1  Se1.014 In1.006 Se1.019 In1.008         2.65793680      0.07778310     -0.02926445     -0.00227628
BJAIP    1  Se1.014 In1.008 Se1.014 In1.008         1.94183404      0.06283111     -0.03235658     -0.00203300
BJAIP    1  Se1.019 In1.008 Se1.019 In1.008         2.82925977      0.10545964     -0.03727460     -0.00393097
BJAIP    1  Se1.014 In1.009 Se1.014 In1.009         1.57606212      0.04104308     -0.02604154     -0.00106882
BJAIP    1  Se1.017 In1.009 Se1.020 In1.010         2.23728551      0.05650900     -0.02525784     -0.00142730
--
 
   (Skipping property calculation,
    use PROP keyword to activate)
--
 
  Total CASPT2 energies:
::    CASPT2 Root  1     Total energy:   -225.05550974
 
  A NEW JOBIPH FILE NAMED 'JOBMIX' IS PREPARED.
********************************************************************************
--- Stop Module: caspt2 at Wed Nov 13 12:57:35 2024 /rc=_RC_ALL_IS_WELL_ ---
*** files: xmldump
    saved to directory /home/grierjones/DDCASPT2/ozone/ANO-RCC-VDZP/ozone_151.50

>>> EXPORT i = B

>>> EXPORT j = P

>>> IF (-FILE GMJ_e2_${i}_${j}.csv)

>>> COPY /tmp/ozone_151.50/GMJ_RHS_B_P.csv /home/grierjones/DDCASPT2/ozone/ANO-RCC-VDZP/ozone_151.50/GMJ_RHS_B_P.csv

>>> COPY /tmp/ozone_151.50/GMJ_IVECW_B_P.csv /home/grierjones/DDCASPT2/ozone/ANO-RCC-VDZP/ozone_151.50/GMJ_IVECW_B_P.csv

>>> COPY /tmp/ozone_151.50/GMJ_IVECX_B_P.csv /home/grierjones/DDCASPT2/ozone/ANO-RCC-VDZP/ozone_151.50/GMJ_IVECX_B_P.csv

>>> COPY /tmp/ozone_151.50/GMJ_IVECC2_B_P.csv /home/grierjones/DDCASPT2/ozone/ANO-RCC-VDZP/ozone_151.50/GMJ_IVECC2_B_P.csv

>>> COPY /tmp/ozone_151.50/GMJ_e2_B_P.csv /home/grierjones/DDCASPT2/ozone/ANO-RCC-VDZP/ozone_151.50/GMJ_e2_B_P.csv

>>> END FOREACH

>>> EXPORT j = M

>>> IF (-FILE GMJ_e2_${i}_${j}.csv)
(Skipped)

>>> END FOREACH

>>> END FOREACH

>>> EXPORT i = E

>>> EXPORT j = P

>>> IF (-FILE GMJ_e2_${i}_${j}.csv)

>>> COPY /tmp/ozone_151.50/GMJ_RHS_E_P.csv /home/grierjones/DDCASPT2/ozone/ANO-RCC-VDZP/ozone_151.50/GMJ_RHS_E_P.csv

>>> COPY /tmp/ozone_151.50/GMJ_IVECW_E_P.csv /home/grierjones/DDCASPT2/ozone/ANO-RCC-VDZP/ozone_151.50/GMJ_IVECW_E_P.csv

>>> COPY /tmp/ozone_151.50/GMJ_IVECX_E_P.csv /home/grierjones/DDCASPT2/ozone/ANO-RCC-VDZP/ozone_151.50/GMJ_IVECX_E_P.csv

>>> COPY /tmp/ozone_151.50/GMJ_IVECC2_E_P.csv /home/grierjones/DDCASPT2/ozone/ANO-RCC-VDZP/ozone_151.50/GMJ_IVECC2_E_P.csv

>>> COPY /tmp/ozone_151.50/GMJ_e2_E_P.csv /home/grierjones/DDCASPT2/ozone/ANO-RCC-VDZP/ozone_151.50/GMJ_e2_E_P.csv

>>> END FOREACH

>>> EXPORT j = M

>>> IF (-FILE GMJ_e2_${i}_${j}.csv)

>>> COPY /tmp/ozone_151.50/GMJ_RHS_E_M.csv /home/grierjones/DDCASPT2/ozone/ANO-RCC-VDZP/ozone_151.50/GMJ_RHS_E_M.csv

>>> COPY /tmp/ozone_151.50/GMJ_IVECW_E_M.csv /home/grierjones/DDCASPT2/ozone/ANO-RCC-VDZP/ozone_151.50/GMJ_IVECW_E_M.csv

>>> COPY /tmp/ozone_151.50/GMJ_IVECX_E_M.csv /home/grierjones/DDCASPT2/ozone/ANO-RCC-VDZP/ozone_151.50/GMJ_IVECX_E_M.csv

>>> COPY /tmp/ozone_151.50/GMJ_IVECC2_E_M.csv /home/grierjones/DDCASPT2/ozone/ANO-RCC-VDZP/ozone_151.50/GMJ_IVECC2_E_M.csv

>>> COPY /tmp/ozone_151.50/GMJ_e2_E_M.csv /home/grierjones/DDCASPT2/ozone/ANO-RCC-VDZP/ozone_151.50/GMJ_e2_E_M.csv

>>> END FOREACH

>>> END FOREACH

>>> EXPORT i = F

>>> EXPORT j = P

>>> IF (-FILE GMJ_e2_${i}_${j}.csv)

>>> COPY /tmp/ozone_151.50/GMJ_RHS_F_P.csv /home/grierjones/DDCASPT2/ozone/ANO-RCC-VDZP/ozone_151.50/GMJ_RHS_F_P.csv

>>> COPY /tmp/ozone_151.50/GMJ_IVECW_F_P.csv /home/grierjones/DDCASPT2/ozone/ANO-RCC-VDZP/ozone_151.50/GMJ_IVECW_F_P.csv

>>> COPY /tmp/ozone_151.50/GMJ_IVECX_F_P.csv /home/grierjones/DDCASPT2/ozone/ANO-RCC-VDZP/ozone_151.50/GMJ_IVECX_F_P.csv

>>> COPY /tmp/ozone_151.50/GMJ_IVECC2_F_P.csv /home/grierjones/DDCASPT2/ozone/ANO-RCC-VDZP/ozone_151.50/GMJ_IVECC2_F_P.csv

>>> COPY /tmp/ozone_151.50/GMJ_e2_F_P.csv /home/grierjones/DDCASPT2/ozone/ANO-RCC-VDZP/ozone_151.50/GMJ_e2_F_P.csv

>>> END FOREACH

>>> EXPORT j = M

>>> IF (-FILE GMJ_e2_${i}_${j}.csv)

>>> COPY /tmp/ozone_151.50/GMJ_RHS_F_M.csv /home/grierjones/DDCASPT2/ozone/ANO-RCC-VDZP/ozone_151.50/GMJ_RHS_F_M.csv

>>> COPY /tmp/ozone_151.50/GMJ_IVECW_F_M.csv /home/grierjones/DDCASPT2/ozone/ANO-RCC-VDZP/ozone_151.50/GMJ_IVECW_F_M.csv

>>> COPY /tmp/ozone_151.50/GMJ_IVECX_F_M.csv /home/grierjones/DDCASPT2/ozone/ANO-RCC-VDZP/ozone_151.50/GMJ_IVECX_F_M.csv

>>> COPY /tmp/ozone_151.50/GMJ_IVECC2_F_M.csv /home/grierjones/DDCASPT2/ozone/ANO-RCC-VDZP/ozone_151.50/GMJ_IVECC2_F_M.csv

>>> COPY /tmp/ozone_151.50/GMJ_e2_F_M.csv /home/grierjones/DDCASPT2/ozone/ANO-RCC-VDZP/ozone_151.50/GMJ_e2_F_M.csv

>>> END FOREACH

>>> END FOREACH

>>> EXPORT i = G

>>> EXPORT j = P

>>> IF (-FILE GMJ_e2_${i}_${j}.csv)

>>> COPY /tmp/ozone_151.50/GMJ_RHS_G_P.csv /home/grierjones/DDCASPT2/ozone/ANO-RCC-VDZP/ozone_151.50/GMJ_RHS_G_P.csv

>>> COPY /tmp/ozone_151.50/GMJ_IVECW_G_P.csv /home/grierjones/DDCASPT2/ozone/ANO-RCC-VDZP/ozone_151.50/GMJ_IVECW_G_P.csv

>>> COPY /tmp/ozone_151.50/GMJ_IVECX_G_P.csv /home/grierjones/DDCASPT2/ozone/ANO-RCC-VDZP/ozone_151.50/GMJ_IVECX_G_P.csv

>>> COPY /tmp/ozone_151.50/GMJ_IVECC2_G_P.csv /home/grierjones/DDCASPT2/ozone/ANO-RCC-VDZP/ozone_151.50/GMJ_IVECC2_G_P.csv

>>> COPY /tmp/ozone_151.50/GMJ_e2_G_P.csv /home/grierjones/DDCASPT2/ozone/ANO-RCC-VDZP/ozone_151.50/GMJ_e2_G_P.csv

>>> END FOREACH

>>> EXPORT j = M

>>> IF (-FILE GMJ_e2_${i}_${j}.csv)

>>> COPY /tmp/ozone_151.50/GMJ_RHS_G_M.csv /home/grierjones/DDCASPT2/ozone/ANO-RCC-VDZP/ozone_151.50/GMJ_RHS_G_M.csv

>>> COPY /tmp/ozone_151.50/GMJ_IVECW_G_M.csv /home/grierjones/DDCASPT2/ozone/ANO-RCC-VDZP/ozone_151.50/GMJ_IVECW_G_M.csv

>>> COPY /tmp/ozone_151.50/GMJ_IVECX_G_M.csv /home/grierjones/DDCASPT2/ozone/ANO-RCC-VDZP/ozone_151.50/GMJ_IVECX_G_M.csv

>>> COPY /tmp/ozone_151.50/GMJ_IVECC2_G_M.csv /home/grierjones/DDCASPT2/ozone/ANO-RCC-VDZP/ozone_151.50/GMJ_IVECC2_G_M.csv

>>> COPY /tmp/ozone_151.50/GMJ_e2_G_M.csv /home/grierjones/DDCASPT2/ozone/ANO-RCC-VDZP/ozone_151.50/GMJ_e2_G_M.csv

>>> END FOREACH

>>> END FOREACH

>>> EXPORT i = H

>>> EXPORT j = P

>>> IF (-FILE GMJ_e2_${i}_${j}.csv)

>>> COPY /tmp/ozone_151.50/GMJ_RHS_H_P.csv /home/grierjones/DDCASPT2/ozone/ANO-RCC-VDZP/ozone_151.50/GMJ_RHS_H_P.csv

>>> COPY /tmp/ozone_151.50/GMJ_IVECW_H_P.csv /home/grierjones/DDCASPT2/ozone/ANO-RCC-VDZP/ozone_151.50/GMJ_IVECW_H_P.csv

>>> COPY /tmp/ozone_151.50/GMJ_IVECX_H_P.csv /home/grierjones/DDCASPT2/ozone/ANO-RCC-VDZP/ozone_151.50/GMJ_IVECX_H_P.csv

>>> COPY /tmp/ozone_151.50/GMJ_IVECC2_H_P.csv /home/grierjones/DDCASPT2/ozone/ANO-RCC-VDZP/ozone_151.50/GMJ_IVECC2_H_P.csv

>>> COPY /tmp/ozone_151.50/GMJ_e2_H_P.csv /home/grierjones/DDCASPT2/ozone/ANO-RCC-VDZP/ozone_151.50/GMJ_e2_H_P.csv

>>> END FOREACH

>>> EXPORT j = M

>>> IF (-FILE GMJ_e2_${i}_${j}.csv)

>>> COPY /tmp/ozone_151.50/GMJ_RHS_H_M.csv /home/grierjones/DDCASPT2/ozone/ANO-RCC-VDZP/ozone_151.50/GMJ_RHS_H_M.csv

>>> COPY /tmp/ozone_151.50/GMJ_IVECW_H_M.csv /home/grierjones/DDCASPT2/ozone/ANO-RCC-VDZP/ozone_151.50/GMJ_IVECW_H_M.csv

>>> COPY /tmp/ozone_151.50/GMJ_IVECX_H_M.csv /home/grierjones/DDCASPT2/ozone/ANO-RCC-VDZP/ozone_151.50/GMJ_IVECX_H_M.csv

>>> COPY /tmp/ozone_151.50/GMJ_IVECC2_H_M.csv /home/grierjones/DDCASPT2/ozone/ANO-RCC-VDZP/ozone_151.50/GMJ_IVECC2_H_M.csv

>>> COPY /tmp/ozone_151.50/GMJ_e2_H_M.csv /home/grierjones/DDCASPT2/ozone/ANO-RCC-VDZP/ozone_151.50/GMJ_e2_H_M.csv

>>> END FOREACH

>>> END FOREACH

>>> EXPORT i = A

>>> IF (-FILE GMJ_e2_$i.csv)

>>> COPY /tmp/ozone_151.50/GMJ_RHS_A.csv /home/grierjones/DDCASPT2/ozone/ANO-RCC-VDZP/ozone_151.50/GMJ_RHS_A.csv

>>> COPY /tmp/ozone_151.50/GMJ_IVECW_A.csv /home/grierjones/DDCASPT2/ozone/ANO-RCC-VDZP/ozone_151.50/GMJ_IVECW_A.csv

>>> COPY /tmp/ozone_151.50/GMJ_IVECX_A.csv /home/grierjones/DDCASPT2/ozone/ANO-RCC-VDZP/ozone_151.50/GMJ_IVECX_A.csv

>>> COPY /tmp/ozone_151.50/GMJ_IVECC2_A.csv /home/grierjones/DDCASPT2/ozone/ANO-RCC-VDZP/ozone_151.50/GMJ_IVECC2_A.csv

>>> COPY /tmp/ozone_151.50/GMJ_e2_A.csv /home/grierjones/DDCASPT2/ozone/ANO-RCC-VDZP/ozone_151.50/GMJ_e2_A.csv

>>> END FOREACH

>>> EXPORT i = C

>>> IF (-FILE GMJ_e2_$i.csv)

>>> COPY /tmp/ozone_151.50/GMJ_RHS_C.csv /home/grierjones/DDCASPT2/ozone/ANO-RCC-VDZP/ozone_151.50/GMJ_RHS_C.csv

>>> COPY /tmp/ozone_151.50/GMJ_IVECW_C.csv /home/grierjones/DDCASPT2/ozone/ANO-RCC-VDZP/ozone_151.50/GMJ_IVECW_C.csv

>>> COPY /tmp/ozone_151.50/GMJ_IVECX_C.csv /home/grierjones/DDCASPT2/ozone/ANO-RCC-VDZP/ozone_151.50/GMJ_IVECX_C.csv

>>> COPY /tmp/ozone_151.50/GMJ_IVECC2_C.csv /home/grierjones/DDCASPT2/ozone/ANO-RCC-VDZP/ozone_151.50/GMJ_IVECC2_C.csv

>>> COPY /tmp/ozone_151.50/GMJ_e2_C.csv /home/grierjones/DDCASPT2/ozone/ANO-RCC-VDZP/ozone_151.50/GMJ_e2_C.csv

>>> END FOREACH

>>> EXPORT i = D

>>> IF (-FILE GMJ_e2_$i.csv)

>>> COPY /tmp/ozone_151.50/GMJ_RHS_D.csv /home/grierjones/DDCASPT2/ozone/ANO-RCC-VDZP/ozone_151.50/GMJ_RHS_D.csv

>>> COPY /tmp/ozone_151.50/GMJ_IVECW_D.csv /home/grierjones/DDCASPT2/ozone/ANO-RCC-VDZP/ozone_151.50/GMJ_IVECW_D.csv

>>> COPY /tmp/ozone_151.50/GMJ_IVECX_D.csv /home/grierjones/DDCASPT2/ozone/ANO-RCC-VDZP/ozone_151.50/GMJ_IVECX_D.csv

>>> COPY /tmp/ozone_151.50/GMJ_IVECC2_D.csv /home/grierjones/DDCASPT2/ozone/ANO-RCC-VDZP/ozone_151.50/GMJ_IVECC2_D.csv

>>> COPY /tmp/ozone_151.50/GMJ_e2_D.csv /home/grierjones/DDCASPT2/ozone/ANO-RCC-VDZP/ozone_151.50/GMJ_e2_D.csv

>>> END FOREACH

.########################.
.# Non-zero return code #.
.########################.

    Timing: Wall=2.17 User=1.50 System=0.66
********************************************
*** WorkDir at /tmp/ozone_151.50 cleaned ***
********************************************
