[Molden Format]
[N_Atoms]
                     2
[Atoms] (AU)
N1          1      7           0.00000000      0.00000000      0.00000000
O2          2      8           0.00000000      0.00000000      3.96842486
[Charge] (Mulliken)
  0.155096535190367     
 -0.155096535190426     
[GTO] (AU)
   1
   s  14
  7.476171500E+04  1.182599996E-04
  1.112365400E+04  5.172899983E-04
  2.512685700E+03  2.266659992E-03
  7.037772900E+02  9.145289970E-03
  2.254787900E+02  3.239342989E-02
  7.961581000E+01  9.770792967E-02
  3.023728300E+01  2.317036792E-01
  1.226362200E+01  3.768898887E-01
  5.265086000E+00  3.177420689E-01
  2.333471000E+00  8.211308973E-02
  9.018560000E-01  3.312089989E-03
  3.583360000E-01  3.720819988E-03
  1.410930000E-01  3.165419989E-03
  4.938300000E-02  4.595799985E-04
   s  14
  7.476171500E+04 -2.707000010E-05
  1.112365400E+04 -1.183700004E-04
  2.512685700E+03 -5.203800020E-04
  7.037772900E+02 -2.102930008E-03
  2.254787900E+02 -7.568200028E-03
  7.961581000E+01 -2.346767009E-02
  3.023728300E+01 -6.042901023E-02
  1.226362200E+01 -1.170549104E-01
  5.265086000E+00 -1.555321506E-01
  2.333471000E+00 -2.468935009E-02
  9.018560000E-01  3.625054514E-01
  3.583360000E-01  5.550845021E-01
  1.410930000E-01  2.148376908E-01
  4.938300000E-02  8.983850034E-03
   p   9
  1.266665700E+02  1.233630000E-03
  2.983738900E+01  9.493409996E-03
  9.394038000E+00  4.293961998E-02
  3.405104000E+00  1.362925399E-01
  1.350000000E+00  2.921362499E-01
  5.576960000E-01  3.887887598E-01
  2.324490000E-01  2.946801399E-01
  9.426400000E-02  8.012875997E-02
  3.299200000E-02  5.405199998E-04
 
   2
   s  14
  1.053749500E+05  1.238600013E-04
  1.567924000E+04  5.120100053E-04
  3.534544700E+03  2.152910022E-03
  9.873651600E+02  8.528440089E-03
  3.159787500E+02  3.018049031E-02
  1.116542800E+02  9.099702095E-02
  4.269945100E+01  2.177936423E-01
  1.739559600E+01  3.686245738E-01
  7.438309000E+00  3.366707335E-01
  3.222862000E+00  9.657630101E-02
  1.253877000E+00  2.144520022E-03
  4.951550000E-01  1.194350012E-03
  1.916650000E-01  5.390200056E-04
  6.708300000E-02  2.103400022E-04
   s  14
  1.053749500E+05 -2.815000008E-05
  1.567924000E+04 -1.163000003E-04
  3.534544700E+03 -4.909200013E-04
  9.873651600E+02 -1.946160005E-03
  3.159787500E+02 -7.005300019E-03
  1.116542800E+02 -2.167814006E-02
  4.269945100E+01 -5.641213015E-02
  1.739559600E+01 -1.127053003E-01
  7.438309000E+00 -1.589119704E-01
  3.222862000E+00 -3.355083009E-02
  1.253877000E+00  3.531902810E-01
  4.951550000E-01  5.534199315E-01
  1.916650000E-01  2.301839106E-01
  6.708300000E-02  1.127267003E-02
   p   9
  2.000000000E+02  9.173000030E-04
  4.653336700E+01  7.377140024E-03
  1.462180900E+01  3.483515011E-02
  5.313064000E+00  1.144397004E-01
  2.102525000E+00  2.554966408E-01
  8.502230000E-01  3.722557412E-01
  3.375970000E-01  3.323314911E-01
  1.288920000E-01  1.400847905E-01
  4.511200000E-02  2.395784008E-02
 
[MO]
Sym=     1a  
Ene=   -20.6060
Spin= Alpha
Occup=    1.00000
   1        -0.00001130
   2        -0.00015352
   3        -0.00000000
   4         0.00000000
   5        -0.00013717
   6         1.00000178
   7        -0.00012075
   8         0.00000000
   9        -0.00000000
  10        -0.00023623
Sym=     1a  
Ene=   -20.6070
Spin= Beta
Occup=    1.00000
   1        -0.00000750
   2        -0.00014127
   3        -0.00000000
   4        -0.00000000
   5        -0.00012123
   6         1.00000160
   7        -0.00005935
   8         0.00000000
   9        -0.00000000
  10        -0.00021800
Sym=     2a  
Ene=   -15.7090
Spin= Alpha
Occup=    1.00000
   1         0.99999382
   2        -0.00478612
   3        -0.00000000
   4         0.00000000
   5         0.00034062
   6        -0.00004517
   7        -0.00044381
   8         0.00000000
   9         0.00000000
  10         0.00036914
Sym=     2a  
Ene=   -15.6760
Spin= Beta
Occup=    1.00000
   1         0.99997706
   2        -0.00713906
   3        -0.00000000
   4         0.00000000
   5         0.00027351
   6        -0.00003988
   7        -0.00029374
   8        -0.00000000
   9         0.00000000
  10         0.00016393
Sym=     3a  
Ene=    -1.2077
Spin= Alpha
Occup=    1.00000
   1        -0.00155176
   2         0.23117306
   3        -0.00000000
   4        -0.00000000
   5         0.05255547
   6        -0.00116201
   7         0.94788062
   8        -0.00000000
   9        -0.00000000
  10        -0.01190087
Sym=     3a  
Ene=    -1.2085
Spin= Beta
Occup=    1.00000
   1        -0.00182824
   2         0.10776090
   3        -0.00000000
   4        -0.00000000
   5         0.04907885
   6        -0.00074933
   7         0.97918855
   8         0.00000000
   9         0.00000000
  10        -0.00008762
Sym=     4a  
Ene=    -1.0620
Spin= Alpha
Occup=    1.00000
   1        -0.00521033
   2        -0.97055619
   3        -0.00000000
   4        -0.00000000
   5         0.00049127
   6         0.00350405
   7         0.30357193
   8         0.00000000
   9         0.00000000
  10         0.03046748
Sym=     4a  
Ene=    -0.9205
Spin= Beta
Occup=    1.00000
   1         0.00692597
   2         0.98689508
   3         0.00000000
   4         0.00000000
   5        -0.00617496
   6        -0.00349953
   7        -0.17869521
   8         0.00000000
   9         0.00000000
  10        -0.05986196
Sym=     5a  
Ene=    -0.5978
Spin= Alpha
Occup=    1.00000
   1         0.00000000
   2         0.00000000
   3         0.33253316
   4         0.90041150
   5        -0.00000000
   6         0.00000000
   7         0.00000000
   8         0.08041748
   9         0.21774918
  10         0.00000000
Sym=     5a  
Ene=    -0.5185
Spin= Beta
Occup=    1.00000
   1        -0.00000000
   2        -0.00000000
   3         0.04459686
   4        -0.01647018
   5        -0.00000000
   6         0.00000000
   7         0.00000000
   8         0.93453227
   9        -0.34513438
  10        -0.00000000
Sym=     6a  
Ene=    -0.5176
Spin= Alpha
Occup=    1.00000
   1        -0.00189226
   2        -0.03778831
   3         0.00000000
   4         0.00000000
   5         0.96332459
   6        -0.00867436
   7        -0.16609119
   8        -0.00000000
   9        -0.00000000
  10        -0.17912399
Sym=     6a  
Ene=    -0.5173
Spin= Beta
Occup=    1.00000
   1        -0.00000000
   2        -0.00000000
   3         0.01261889
   4         0.03416861
   5         0.00000000
   6        -0.00000000
   7        -0.00000000
   8         0.34551004
   9         0.93554947
  10        -0.00000000
Sym=     7a  
Ene=    -0.5166
Spin= Alpha
Occup=    1.00000
   1         0.00000000
   2         0.00000000
   3         0.05249698
   4        -0.01938779
   5        -0.00000000
   6         0.00000000
   7         0.00000000
   8         0.93368449
   9        -0.34482128
  10         0.00000000
Sym=     7a  
Ene=    -0.4682
Spin= Beta
Occup=    1.00000
   1        -0.00283546
   2        -0.04869282
   3        -0.00000000
   4        -0.00000000
   5         0.93651091
   6        -0.00840997
   7        -0.15561496
   8        -0.00000000
   9        -0.00000000
  10        -0.25339009
Sym=     8a  
Ene=    -0.5119
Spin= Alpha
Occup=    1.00000
   1         0.00000000
   2         0.00000000
   3         0.09907718
   4         0.26827470
   5        -0.00000000
   6         0.00000000
   7         0.00000000
   8        -0.33753165
   9        -0.91394610
  10         0.00000000
Sym=     8a  
Ene=     0.0662
Spin= Beta
Occup=    0.00000
   1        -0.00000000
   2        -0.00000000
   3         0.93846860
   4        -0.34658812
   5         0.00000000
   6         0.00000000
   7         0.00000000
   8        -0.09675545
   9         0.03573299
  10        -0.00000000
Sym=     9a  
Ene=     0.0267
Spin= Alpha
Occup=    0.00000
   1         0.00000000
   2        -0.00000000
   3         0.93805983
   4        -0.34643715
   5        -0.00000000
   6         0.00000000
   7         0.00000000
   8        -0.10462058
   9         0.03863768
  10         0.00000000
Sym=     9a  
Ene=     0.1016
Spin= Beta
Occup=    0.00000
   1         0.01203563
   2         0.19377202
   3         0.00000000
   4        -0.00000000
   5         0.39940574
   6        -0.00415798
   7        -0.08087710
   8         0.00000000
   9         0.00000000
  10         0.98758963
Sym=    10a  
Ene=     0.1130
Spin= Alpha
Occup=    0.00000
   1         0.01172810
   2         0.16933012
   3        -0.00000000
   4         0.00000000
   5         0.32904082
   6        -0.00340502
   7        -0.05726543
   8        -0.00000000
   9        -0.00000000
  10         1.00497158
Sym=    10a  
Ene=     0.1400
Spin= Beta
Occup=    0.00000
   1         0.00000000
   2         0.00000000
   3         0.34674970
   4         0.93890611
   5         0.00000000
   6        -0.00000000
   7        -0.00000000
   8        -0.03189667
   9        -0.08636771
  10         0.00000000
