[Molden Format]
[N_Atoms]
                     2
[Atoms] (AU)
C1          1      6           0.00000000      0.00000000      0.00000000
F2          2      9           0.00000000      0.00000000      2.07869874
[Charge] (Mulliken)
  0.295232041972096     
 -0.295232041972104     
[GTO] (AU)
   1
   s  14
  5.055750100E+04  1.128874000E-04
  7.524785600E+03  5.295373000E-04
  1.694327600E+03  2.450038300E-03
  4.728227900E+02  1.005398470E-02
  1.517107500E+02  3.545398060E-02
  5.391874600E+01  1.044071086E-01
  2.065931100E+01  2.412894918E-01
  8.383976000E+00  3.834225483E-01
  3.577015000E+00  3.078514393E-01
  1.547118000E+00  6.872442990E-02
  6.130130000E-01  2.224445000E-04
  2.460680000E-01  1.976748900E-03
  9.908700000E-02  2.057859400E-03
  3.468000000E-02  4.182020000E-04
   s  14
  5.055750100E+04 -2.507420000E-05
  7.524785600E+03 -1.175945000E-04
  1.694327600E+03 -5.456275000E-04
  4.728227900E+02 -2.245077100E-03
  1.517107500E+02 -8.043471800E-03
  5.391874600E+01 -2.442588710E-02
  2.065931100E+01 -6.136791180E-02
  8.383976000E+00 -1.177767835E-01
  3.577015000E+00 -1.550487783E-01
  1.547118000E+00 -1.933316860E-02
  6.130130000E-01  3.996930678E-01
  2.460680000E-01  5.589420949E-01
  9.908700000E-02  1.711195023E-01
  3.468000000E-02  7.456244600E-03
   p   9
  8.333315500E+01  1.344656000E-03
  1.955761100E+01  1.023555500E-02
  6.080365000E+00  4.520067100E-02
  2.179317000E+00  1.410756198E-01
  8.651500000E-01  3.047388085E-01
  3.619440000E-01  3.995281011E-01
  1.547400000E-01  2.719163432E-01
  6.542900000E-02  5.857669330E-02
  2.290000000E-02 -1.263813000E-04
 
   2
   s  14
  1.031094600E+05  1.713099991E-04
  1.528100700E+04  7.123999962E-04
  3.441539200E+03  2.990479984E-03
  9.670948300E+02  1.164036994E-02
  3.140353400E+02  3.968642979E-02
  1.134423000E+02  1.128546094E-01
  4.464472700E+01  2.473650687E-01
  1.894287400E+01  3.672702681E-01
  8.532743000E+00  2.896286985E-01
  3.919401000E+00  7.786681959E-02
  1.568157000E+00  4.562139976E-03
  6.232900000E-01  2.468879987E-03
  2.408610000E-01  1.106309994E-03
  8.430100000E-02  1.739699991E-04
   s  14
  1.031094600E+05 -4.044999995E-05
  1.528100700E+04 -1.682299998E-04
  3.441539200E+03 -7.084299991E-04
  9.670948300E+02 -2.767999996E-03
  3.140353400E+02 -9.611379987E-03
  1.134423000E+02 -2.833957996E-02
  4.464472700E+01 -6.839343991E-02
  1.894287400E+01 -1.237379298E-01
  8.532743000E+00 -1.512859698E-01
  3.919401000E+00 -9.099909988E-03
  1.568157000E+00  3.716257695E-01
  6.232900000E-01  5.500214393E-01
  2.408610000E-01  2.092318697E-01
  8.430100000E-02  8.074639989E-03
   p   9
  2.453302900E+02  1.024860004E-03
  5.691900500E+01  8.344290032E-03
  1.760456800E+01  4.078927016E-02
  6.274995000E+00  1.351370605E-01
  2.447030000E+00  2.798830811E-01
  9.950600000E-01  3.597966414E-01
  4.039730000E-01  3.055347412E-01
  1.548100000E-01  1.354703905E-01
  5.418400000E-02  2.804449011E-02
 
[MO]
Sym=     1a  
Ene=   -26.4920
Spin= Alpha
Occup=    2.00000
   1        -0.00035082
   2        -0.00340272
   3        -0.00000000
   4        -0.00000000
   5         0.00009744
   6         1.00014237
   7        -0.00162995
   8        -0.00000000
   9         0.00000000
  10        -0.00198245
Sym=     2a  
Ene=   -11.4310
Spin= Alpha
Occup=    2.00000
   1         0.99984483
   2        -0.00968240
   3         0.00000000
   4         0.00000000
   5         0.00738050
   6        -0.00050788
   7        -0.00042625
   8        -0.00000000
   9        -0.00000000
  10        -0.00105913
Sym=     3a  
Ene=    -1.8657
Spin= Alpha
Occup=    2.00000
   1        -0.06359407
   2        -0.04846161
   3         0.00000000
   4         0.00000000
   5         0.18464786
   6        -0.00976706
   7         0.88848794
   8        -0.00000000
   9         0.00000000
  10        -0.20939579
Sym=     4a  
Ene=    -0.9326
Spin= Alpha
Occup=    2.00000
   1         0.06878935
   2         0.06097781
   3         0.00000000
   4         0.00000000
   5        -0.31550736
   6         0.02368410
   7         0.39863133
   8         0.00000000
   9        -0.00000000
  10         0.87899885
Sym=     5a  
Ene=    -0.8708
Spin= Alpha
Occup=    2.00000
   1        -0.00000000
   2        -0.00000000
   3         0.11409262
   4         0.14310217
   5         0.00000000
   6        -0.00000000
   7        -0.00000000
   8         0.57876587
   9         0.72592475
  10        -0.00000000
Sym=     6a  
Ene=    -0.8491
Spin= Alpha
Occup=    2.00000
   1        -0.00000000
   2        -0.00000000
   3         0.16450305
   4        -0.13115513
   5         0.00000000
   6        -0.00000000
   7        -0.00000000
   8         0.71545960
   9        -0.57042221
  10        -0.00000000
Sym=     7a  
Ene=    -0.6502
Spin= Alpha
Occup=    2.00000
   1        -0.01932131
   2        -0.95341693
   3         0.00000000
   4         0.00000000
   5         0.36759982
   6         0.01303361
   7         0.12053387
   8        -0.00000000
   9        -0.00000000
  10        -0.01996584
Sym=     8a  
Ene=    -0.0000
Spin= Alpha
Occup=    1.00000
   1        -0.00000000
   2        -0.00000000
   3        -0.64517648
   4        -0.80922113
   5        -0.00000000
   6         0.00000000
   7         0.00000000
   8         0.30708286
   9         0.38516274
  10        -0.00000000
Sym=     9a  
Ene=     0.1452
Spin= Alpha
Occup=    0.00000
   1         0.00000000
   2         0.00000000
   3        -0.80514336
   4         0.64192535
   5         0.00000000
   6        -0.00000000
   7        -0.00000000
   8         0.40427050
   9        -0.32231711
  10         0.00000000
Sym=    10a  
Ene=     0.7254
Spin= Alpha
Occup=    0.00000
   1        -0.11928386
   2        -0.86805310
   3        -0.00000000
   4         0.00000000
   5        -1.17552862
   6         0.13132975
   7         0.97723372
   8         0.00000000
   9        -0.00000000
  10        -0.76770354
