[Molden Format]
[N_Atoms]
                     2
[Atoms] (AU)
C1          1      6           0.00000000      0.00000000      0.00000000
F2          2      9           0.00000000      0.00000000      2.07869874
[Charge] (Mulliken)
  0.000000000000000E+000
  0.000000000000000E+000
[GTO] (AU)
   1
   s  14
  5.055750100E+04  1.128874000E-04
  7.524785600E+03  5.295373000E-04
  1.694327600E+03  2.450038300E-03
  4.728227900E+02  1.005398470E-02
  1.517107500E+02  3.545398060E-02
  5.391874600E+01  1.044071086E-01
  2.065931100E+01  2.412894918E-01
  8.383976000E+00  3.834225483E-01
  3.577015000E+00  3.078514393E-01
  1.547118000E+00  6.872442990E-02
  6.130130000E-01  2.224445000E-04
  2.460680000E-01  1.976748900E-03
  9.908700000E-02  2.057859400E-03
  3.468000000E-02  4.182020000E-04
   s  14
  5.055750100E+04 -2.507420000E-05
  7.524785600E+03 -1.175945000E-04
  1.694327600E+03 -5.456275000E-04
  4.728227900E+02 -2.245077100E-03
  1.517107500E+02 -8.043471800E-03
  5.391874600E+01 -2.442588710E-02
  2.065931100E+01 -6.136791180E-02
  8.383976000E+00 -1.177767835E-01
  3.577015000E+00 -1.550487783E-01
  1.547118000E+00 -1.933316860E-02
  6.130130000E-01  3.996930678E-01
  2.460680000E-01  5.589420949E-01
  9.908700000E-02  1.711195023E-01
  3.468000000E-02  7.456244600E-03
   p   9
  8.333315500E+01  1.344656000E-03
  1.955761100E+01  1.023555500E-02
  6.080365000E+00  4.520067100E-02
  2.179317000E+00  1.410756198E-01
  8.651500000E-01  3.047388085E-01
  3.619440000E-01  3.995281011E-01
  1.547400000E-01  2.719163432E-01
  6.542900000E-02  5.857669330E-02
  2.290000000E-02 -1.263813000E-04
 
   2
   s  14
  1.031094600E+05  1.713099991E-04
  1.528100700E+04  7.123999962E-04
  3.441539200E+03  2.990479984E-03
  9.670948300E+02  1.164036994E-02
  3.140353400E+02  3.968642979E-02
  1.134423000E+02  1.128546094E-01
  4.464472700E+01  2.473650687E-01
  1.894287400E+01  3.672702681E-01
  8.532743000E+00  2.896286985E-01
  3.919401000E+00  7.786681959E-02
  1.568157000E+00  4.562139976E-03
  6.232900000E-01  2.468879987E-03
  2.408610000E-01  1.106309994E-03
  8.430100000E-02  1.739699991E-04
   s  14
  1.031094600E+05 -4.044999995E-05
  1.528100700E+04 -1.682299998E-04
  3.441539200E+03 -7.084299991E-04
  9.670948300E+02 -2.767999996E-03
  3.140353400E+02 -9.611379987E-03
  1.134423000E+02 -2.833957996E-02
  4.464472700E+01 -6.839343991E-02
  1.894287400E+01 -1.237379298E-01
  8.532743000E+00 -1.512859698E-01
  3.919401000E+00 -9.099909988E-03
  1.568157000E+00  3.716257695E-01
  6.232900000E-01  5.500214393E-01
  2.408610000E-01  2.092318697E-01
  8.430100000E-02  8.074639989E-03
   p   9
  2.453302900E+02  1.024860004E-03
  5.691900500E+01  8.344290032E-03
  1.760456800E+01  4.078927016E-02
  6.274995000E+00  1.351370605E-01
  2.447030000E+00  2.798830811E-01
  9.950600000E-01  3.597966414E-01
  4.039730000E-01  3.055347412E-01
  1.548100000E-01  1.354703905E-01
  5.418400000E-02  2.804449011E-02
 
[MO]
Sym=     1a  
Ene=   -26.4120
Spin= Alpha
Occup=    2.00000
   1         0.00044474
   2         0.00127943
   3        -0.00000000
   4        -0.00000000
   5         0.00130835
   6         0.99983615
   7         0.00007416
   8         0.00000000
   9        -0.00000000
  10        -0.00002205
Sym=     2a  
Ene=   -11.3390
Spin= Alpha
Occup=    2.00000
   1         0.99892753
   2         0.00036149
   3         0.00000000
   4        -0.00000000
   5         0.00020125
   6        -0.00108410
   7         0.00770532
   8        -0.00000000
   9        -0.00000000
  10        -0.00670411
Sym=     3a  
Ene=    -1.8535
Spin= Alpha
Occup=    2.00000
   1        -0.05430237
   2         0.21491224
   3        -0.00000000
   4        -0.00000000
   5         0.12710373
   6        -0.02140408
   7         0.82427860
   8         0.00000000
   9         0.00000000
  10        -0.06433665
Sym=     4a  
Ene=    -0.8857
Spin= Alpha
Occup=    2.00000
   1         0.05811486
   2        -0.46055957
   3        -0.00000000
   4         0.00000000
   5         0.03378289
   6         0.01944562
   7         0.37360431
   8        -0.00000000
   9         0.00000000
  10         0.73400127
Sym=     5a  
Ene=    -0.8114
Spin= Alpha
Occup=    2.00000
   1         0.00000000
   2        -0.00000000
   3         0.27722466
   4        -0.13215767
   5         0.00000000
   6        -0.00000000
   7         0.00000000
   8         0.77797282
   9        -0.37087275
  10         0.00000000
Sym=     6a  
Ene=    -0.8114
Spin= Alpha
Occup=    2.00000
   1        -0.00000000
   2        -0.00000000
   3         0.13215767
   4         0.27722466
   5         0.00000000
   6         0.00000000
   7        -0.00000000
   8         0.37087275
   9         0.77797282
  10        -0.00000000
Sym=     7a  
Ene=    -0.5179
Spin= Alpha
Occup=    2.00000
   1         0.05401845
   2         0.73369933
   3        -0.00000000
   4        -0.00000000
   5        -0.58663470
   6         0.01178230
   7        -0.01119355
   8         0.00000000
   9         0.00000000
  10         0.52497736
Sym=     8a  
Ene=    -0.3552
Spin= Alpha
Occup=    0.50000
   1         0.00000000
   2        -0.00000000
   3        -0.84852604
   4         0.53876831
   5         0.00000000
   6        -0.00000000
   7        -0.00000000
   8         0.50778558
   9        -0.32241648
  10         0.00000000
Sym=     9a  
Ene=    -0.3552
Spin= Alpha
Occup=    0.50000
   1        -0.00000000
   2        -0.00000000
   3        -0.53876831
   4        -0.84852604
   5         0.00000000
   6         0.00000000
   7         0.00000000
   8         0.32241648
   9         0.50778558
  10        -0.00000000
Sym=    10a  
Ene=    -0.1754
Spin= Alpha
Occup=    0.00000
   1         0.12636245
   2         0.93384865
   3        -0.00000000
   4        -0.00000000
   5         1.13545264
   6        -0.13307943
   7        -1.04815776
   8        -0.00000000
   9         0.00000000
  10         0.76662555
