[Molden Format]
[N_Atoms]
                     2
[Atoms] (AU)
C1          1      6           0.00000000      0.00000000      0.00000000
LI2         2      3           0.00000000      0.00000000      1.88972612
[Charge] (Mulliken)
 -0.463169585588039     
  0.463169585588034     
[GTO] (AU)
   1
   s  14
  5.055750100E+04  1.128874000E-04
  7.524785600E+03  5.295373000E-04
  1.694327600E+03  2.450038300E-03
  4.728227900E+02  1.005398470E-02
  1.517107500E+02  3.545398060E-02
  5.391874600E+01  1.044071086E-01
  2.065931100E+01  2.412894918E-01
  8.383976000E+00  3.834225483E-01
  3.577015000E+00  3.078514393E-01
  1.547118000E+00  6.872442990E-02
  6.130130000E-01  2.224445000E-04
  2.460680000E-01  1.976748900E-03
  9.908700000E-02  2.057859400E-03
  3.468000000E-02  4.182020000E-04
   s  14
  5.055750100E+04 -2.507420000E-05
  7.524785600E+03 -1.175945000E-04
  1.694327600E+03 -5.456275000E-04
  4.728227900E+02 -2.245077100E-03
  1.517107500E+02 -8.043471800E-03
  5.391874600E+01 -2.442588710E-02
  2.065931100E+01 -6.136791180E-02
  8.383976000E+00 -1.177767835E-01
  3.577015000E+00 -1.550487783E-01
  1.547118000E+00 -1.933316860E-02
  6.130130000E-01  3.996930678E-01
  2.460680000E-01  5.589420949E-01
  9.908700000E-02  1.711195023E-01
  3.468000000E-02  7.456244600E-03
   p   9
  8.333315500E+01  1.344656000E-03
  1.955761100E+01  1.023555500E-02
  6.080365000E+00  4.520067100E-02
  2.179317000E+00  1.410756198E-01
  8.651500000E-01  3.047388085E-01
  3.619440000E-01  3.995281011E-01
  1.547400000E-01  2.719163432E-01
  6.542900000E-02  5.857669330E-02
  2.290000000E-02 -1.263813000E-04
 
   2
   s  14
  9.497934400E+03  9.668999974E-05
  1.416811200E+03  6.087099984E-04
  3.214599400E+02  3.101519992E-03
  9.112416300E+01  1.266904997E-02
  2.999989100E+01  4.248012989E-02
  1.101763100E+01  1.150183297E-01
  4.372801000E+00  2.398650094E-01
  1.831256000E+00  3.584300090E-01
  8.022610000E-01  3.048527792E-01
  3.626480000E-01  8.824261976E-02
  1.139950000E-01 -8.445899977E-04
  5.123700000E-02 -7.943959979E-03
  2.246800000E-02 -3.764419990E-03
  7.860000000E-03 -8.868999976E-05
   s  14
  9.497934400E+03 -1.244999993E-05
  1.416811200E+03 -7.838999954E-05
  3.214599400E+02 -4.007099976E-04
  9.112416300E+01 -1.645249990E-03
  2.999989100E+01 -5.634599967E-03
  1.101763100E+01 -1.590780991E-02
  4.372801000E+00 -3.612581979E-02
  1.831256000E+00 -6.459927962E-02
  8.022610000E-01 -1.008321794E-01
  3.626480000E-01 -9.757613942E-02
  1.139950000E-01  2.301215886E-01
  5.123700000E-02  6.102389764E-01
  2.246800000E-02  2.849406083E-01
  7.860000000E-03  4.026899976E-03
   p   9
  1.311950400E+01  1.524940000E-03
  3.077424200E+00  8.314830000E-03
  1.098800500E+00  1.933203000E-02
  4.357784000E-01  4.934293000E-02
  1.802432000E-01  1.623554000E-01
  7.613330000E-02  3.847505400E-01
  3.254650000E-02  4.336100400E-01
  1.401820000E-02  1.287005900E-01
  4.906400000E-03 -1.018520000E-03
 
[MO]
Sym=     1a  
Ene=   -11.2840
Spin= Alpha
Occup=    1.00000
   1         1.00026999
   2         0.00197420
   3        -0.00000000
   4        -0.00000000
   5         0.00329143
   6        -0.00136578
   7        -0.00278981
   8         0.00000000
   9         0.00000000
  10         0.00064865
Sym=     1a  
Ene=   -11.2600
Spin= Beta
Occup=    1.00000
   1         1.00016178
   2        -0.00116746
   3        -0.00000000
   4         0.00000000
   5         0.00297344
   6        -0.00066635
   7        -0.00202823
   8         0.00000000
   9         0.00000000
  10         0.00022310
Sym=     2a  
Ene=    -2.7493
Spin= Alpha
Occup=    1.00000
   1        -0.02655393
   2         0.04956433
   3        -0.00000000
   4        -0.00000000
   5         0.04202398
   6         0.96824460
   7        -0.00627907
   8         0.00000000
   9         0.00000000
  10        -0.00719447
Sym=     2a  
Ene=    -2.7408
Spin= Beta
Occup=    1.00000
   1        -0.02633024
   2         0.03944659
   3        -0.00000000
   4        -0.00000000
   5         0.03840249
   6         0.97296410
   7        -0.00520012
   8         0.00000000
   9         0.00000000
  10        -0.00705910
Sym=     3a  
Ene=    -0.7067
Spin= Alpha
Occup=    1.00000
   1         0.00005014
   2        -0.98647181
   3         0.00000000
   4        -0.00000000
   5        -0.01940472
   6         0.32671670
   7        -0.03166875
   8         0.00000000
   9         0.00000000
  10         0.07649530
Sym=     3a  
Ene=    -0.5825
Spin= Beta
Occup=    1.00000
   1         0.00392800
   2        -0.94226452
   3         0.00000000
   4        -0.00000000
   5         0.01831189
   6         0.28919502
   7        -0.07645197
   8         0.00000000
   9         0.00000000
  10         0.10336851
Sym=     4a  
Ene=    -0.4368
Spin= Alpha
Occup=    1.00000
   1        -0.00000000
   2        -0.00000000
   3         0.10397713
   4         0.91403425
   5         0.00000000
   6        -0.00000000
   7         0.00000000
   8         0.01804033
   9         0.15858753
  10        -0.00000000
Sym=     4a  
Ene=    -0.3299
Spin= Beta
Occup=    1.00000
   1        -0.00000000
   2        -0.00000000
   3         0.82557536
   4        -0.09391438
   5         0.00000000
   6         0.00000000
   7         0.00000000
   8         0.29947802
   9        -0.03406750
  10         0.00000000
Sym=     5a  
Ene=    -0.3770
Spin= Alpha
Occup=    1.00000
   1        -0.00000000
   2        -0.00000000
   3         0.87828865
   4        -0.09991084
   5         0.00000000
   6         0.00000000
   7         0.00000000
   8         0.21888491
   9        -0.02489953
  10         0.00000000
Sym=     5a  
Ene=     0.0075
Spin= Beta
Occup=    0.00000
   1         0.00377706
   2        -0.12012780
   3        -0.00000000
   4        -0.00000000
   5        -0.01590935
   6         0.04067220
   7         0.80156943
   8        -0.00000000
   9        -0.00000000
  10         0.61676642
Sym=     6a  
Ene=     0.0053
Spin= Alpha
Occup=    0.00000
   1         0.00051505
   2        -0.13517969
   3        -0.00000000
   4         0.00000000
   5        -0.01382308
   6         0.04389320
   7         0.82161700
   8        -0.00000000
   9        -0.00000000
  10         0.59391006
Sym=     6a  
Ene=     0.0198
Spin= Beta
Occup=    0.00000
   1        -0.00000000
   2        -0.00000000
   3         0.04138582
   4         0.36381132
   5         0.00000000
   6        -0.00000000
   7         0.00000000
   8         0.08864465
   9         0.77925068
  10         0.00000000
Sym=     7a  
Ene=     0.1350
Spin= Alpha
Occup=    0.00000
   1         0.00000000
   2         0.00000000
   3        -0.07053449
   4        -0.62004928
   5         0.00000000
   6        -0.00000000
   7        -0.00000000
   8         0.12434189
   9         1.09305522
  10         0.00000000
Sym=     7a  
Ene=     0.1697
Spin= Beta
Occup=    0.00000
   1         0.00000000
   2         0.00000000
   3        -0.73372000
   4         0.08346525
   5         0.00000000
   6        -0.00000000
   7        -0.00000000
   8         1.06312400
   9        -0.12093702
  10         0.00000000
Sym=     8a  
Ene=     0.1559
Spin= Alpha
Occup=    0.00000
   1         0.00000000
   2         0.00000000
   3        -0.66972291
   4         0.07618518
   5         0.00000000
   6        -0.00000000
   7        -0.00000000
   8         1.08259370
   9        -0.12315182
  10         0.00000000
Sym=     8a  
Ene=     0.2245
Spin= Beta
Occup=    0.00000
   1         0.16320528
   2         1.11160606
   3         0.00000000
   4        -0.00000000
   5        -0.02984535
   6        -0.30631216
   7        -0.95002422
   8        -0.00000000
   9         0.00000000
  10         1.03631280
Sym=     9a  
Ene=     0.2082
Spin= Alpha
Occup=    0.00000
   1         0.16229889
   2         1.07816495
   3         0.00000000
   4         0.00000000
   5         0.05546774
   6        -0.33328647
   7        -0.94147338
   8        -0.00000000
   9        -0.00000000
  10         1.03569482
Sym=     9a  
Ene=     0.2826
Spin= Beta
Occup=    0.00000
   1        -0.00000000
   2        -0.00000000
   3        -0.11863209
   4        -1.04286195
   5         0.00000000
   6        -0.00000000
   7         0.00000000
   8         0.08904203
   9         0.78274396
  10        -0.00000000
Sym=    10a  
Ene=     0.2810
Spin= Alpha
Occup=    0.00000
   1         0.01009691
   2        -0.01507628
   3        -0.00000000
   4         0.00000000
   5        -1.12507858
   6         0.48535827
   7         0.04993692
   8         0.00000000
   9         0.00000000
  10         0.25758384
Sym=    10a  
Ene=     0.3156
Spin= Beta
Occup=    0.00000
   1         0.00240387
   2         0.13041892
   3         0.00000000
   4         0.00000000
   5         1.12617058
   6        -0.51676658
   7        -0.11846857
   8        -0.00000000
   9        -0.00000000
  10        -0.18046078
