[Molden Format]
[N_Atoms]
                     2
[Atoms] (AU)
C1          1      6           0.00000000      0.00000000      0.00000000
C2          2      6           0.00000000      0.00000000      2.45664396
[Charge] (Mulliken)
 -3.770850298678852E-011
  3.769784484575212E-011
[GTO] (AU)
   1
   s  14
  5.055750100E+04  1.128874000E-04
  7.524785600E+03  5.295373000E-04
  1.694327600E+03  2.450038300E-03
  4.728227900E+02  1.005398470E-02
  1.517107500E+02  3.545398060E-02
  5.391874600E+01  1.044071086E-01
  2.065931100E+01  2.412894918E-01
  8.383976000E+00  3.834225483E-01
  3.577015000E+00  3.078514393E-01
  1.547118000E+00  6.872442990E-02
  6.130130000E-01  2.224445000E-04
  2.460680000E-01  1.976748900E-03
  9.908700000E-02  2.057859400E-03
  3.468000000E-02  4.182020000E-04
   s  14
  5.055750100E+04 -2.507420000E-05
  7.524785600E+03 -1.175945000E-04
  1.694327600E+03 -5.456275000E-04
  4.728227900E+02 -2.245077100E-03
  1.517107500E+02 -8.043471800E-03
  5.391874600E+01 -2.442588710E-02
  2.065931100E+01 -6.136791180E-02
  8.383976000E+00 -1.177767835E-01
  3.577015000E+00 -1.550487783E-01
  1.547118000E+00 -1.933316860E-02
  6.130130000E-01  3.996930678E-01
  2.460680000E-01  5.589420949E-01
  9.908700000E-02  1.711195023E-01
  3.468000000E-02  7.456244600E-03
   p   9
  8.333315500E+01  1.344656000E-03
  1.955761100E+01  1.023555500E-02
  6.080365000E+00  4.520067100E-02
  2.179317000E+00  1.410756198E-01
  8.651500000E-01  3.047388085E-01
  3.619440000E-01  3.995281011E-01
  1.547400000E-01  2.719163432E-01
  6.542900000E-02  5.857669330E-02
  2.290000000E-02 -1.263813000E-04
 
   2
   s  14
  5.055750100E+04  1.128874000E-04
  7.524785600E+03  5.295373000E-04
  1.694327600E+03  2.450038300E-03
  4.728227900E+02  1.005398470E-02
  1.517107500E+02  3.545398060E-02
  5.391874600E+01  1.044071086E-01
  2.065931100E+01  2.412894918E-01
  8.383976000E+00  3.834225483E-01
  3.577015000E+00  3.078514393E-01
  1.547118000E+00  6.872442990E-02
  6.130130000E-01  2.224445000E-04
  2.460680000E-01  1.976748900E-03
  9.908700000E-02  2.057859400E-03
  3.468000000E-02  4.182020000E-04
   s  14
  5.055750100E+04 -2.507420000E-05
  7.524785600E+03 -1.175945000E-04
  1.694327600E+03 -5.456275000E-04
  4.728227900E+02 -2.245077100E-03
  1.517107500E+02 -8.043471800E-03
  5.391874600E+01 -2.442588710E-02
  2.065931100E+01 -6.136791180E-02
  8.383976000E+00 -1.177767835E-01
  3.577015000E+00 -1.550487783E-01
  1.547118000E+00 -1.933316860E-02
  6.130130000E-01  3.996930678E-01
  2.460680000E-01  5.589420949E-01
  9.908700000E-02  1.711195023E-01
  3.468000000E-02  7.456244600E-03
   p   9
  8.333315500E+01  1.344656000E-03
  1.955761100E+01  1.023555500E-02
  6.080365000E+00  4.520067100E-02
  2.179317000E+00  1.410756198E-01
  8.651500000E-01  3.047388085E-01
  3.619440000E-01  3.995281011E-01
  1.547400000E-01  2.719163432E-01
  6.542900000E-02  5.857669330E-02
  2.290000000E-02 -1.263813000E-04
 
[MO]
Sym=     1a  
Ene=   -11.4160
Spin= Alpha
Occup=    1.00000
   1         0.70684799
   2        -0.00196764
   3        -0.00000000
   4        -0.00000000
   5         0.00111212
   6         0.70684798
   7        -0.00196764
   8        -0.00000000
   9         0.00000000
  10        -0.00111212
Sym=     1a  
Ene=   -11.4160
Spin= Beta
Occup=    1.00000
   1         0.70684799
   2        -0.00196764
   3        -0.00000000
   4        -0.00000000
   5         0.00111212
   6         0.70684798
   7        -0.00196764
   8        -0.00000000
   9         0.00000000
  10        -0.00111212
Sym=     2a  
Ene=   -11.4140
Spin= Alpha
Occup=    1.00000
   1        -0.70750863
   2         0.00027244
   3        -0.00000000
   4        -0.00000000
   5        -0.00163215
   6         0.70750863
   7        -0.00027244
   8        -0.00000000
   9         0.00000000
  10        -0.00163215
Sym=     2a  
Ene=   -11.4140
Spin= Beta
Occup=    1.00000
   1        -0.70750863
   2         0.00027244
   3        -0.00000000
   4        -0.00000000
   5        -0.00163215
   6         0.70750863
   7        -0.00027244
   8        -0.00000000
   9         0.00000000
  10        -0.00163215
Sym=     3a  
Ene=    -1.0574
Spin= Alpha
Occup=    1.00000
   1        -0.04594889
   2         0.50507056
   3         0.00000000
   4        -0.00000000
   5         0.18951147
   6        -0.04594889
   7         0.50507056
   8        -0.00000000
   9        -0.00000000
  10        -0.18951147
Sym=     3a  
Ene=    -1.0574
Spin= Beta
Occup=    1.00000
   1        -0.04594889
   2         0.50507056
   3         0.00000000
   4        -0.00000000
   5         0.18951147
   6        -0.04594889
   7         0.50507056
   8        -0.00000000
   9        -0.00000000
  10        -0.18951147
Sym=     4a  
Ene=    -0.5360
Spin= Alpha
Occup=    1.00000
   1        -0.01772114
   2        -0.72141068
   3         0.00000000
   4        -0.00000000
   5         0.25017557
   6         0.01772114
   7         0.72141068
   8         0.00000000
   9        -0.00000000
  10         0.25017557
Sym=     4a  
Ene=    -0.5360
Spin= Beta
Occup=    1.00000
   1        -0.01772114
   2        -0.72141068
   3         0.00000000
   4        -0.00000000
   5         0.25017557
   6         0.01772114
   7         0.72141068
   8         0.00000000
   9        -0.00000000
  10         0.25017557
Sym=     5a  
Ene=    -0.4605
Spin= Alpha
Occup=    1.00000
   1         0.00000000
   2         0.00000000
   3         0.52358545
   4        -0.31926819
   5        -0.00000000
   6        -0.00000000
   7        -0.00000000
   8         0.52358545
   9        -0.31926819
  10        -0.00000000
Sym=     5a  
Ene=    -0.4605
Spin= Beta
Occup=    1.00000
   1         0.00000000
   2         0.00000000
   3         0.52358545
   4        -0.31926819
   5        -0.00000000
   6        -0.00000000
   7        -0.00000000
   8         0.52358545
   9        -0.31926819
  10        -0.00000000
Sym=     6a  
Ene=    -0.4605
Spin= Alpha
Occup=    1.00000
   1         0.00000000
   2         0.00000000
   3         0.31926819
   4         0.52358545
   5        -0.00000000
   6         0.00000000
   7         0.00000000
   8         0.31926819
   9         0.52358545
  10         0.00000000
Sym=     6a  
Ene=    -0.4605
Spin= Beta
Occup=    1.00000
   1         0.00000000
   2         0.00000000
   3         0.31926819
   4         0.52358545
   5        -0.00000000
   6         0.00000000
   7         0.00000000
   8         0.31926819
   9         0.52358545
  10         0.00000000
Sym=     7a  
Ene=    -0.0954
Spin= Alpha
Occup=    0.00000
   1         0.04497408
   2         0.36888200
   3        -0.00000000
   4        -0.00000000
   5        -0.64986537
   6         0.04497408
   7         0.36888200
   8        -0.00000000
   9        -0.00000000
  10         0.64986537
Sym=     7a  
Ene=    -0.0954
Spin= Beta
Occup=    0.00000
   1         0.04497408
   2         0.36888200
   3        -0.00000000
   4        -0.00000000
   5        -0.64986537
   6         0.04497408
   7         0.36888200
   8        -0.00000000
   9        -0.00000000
  10         0.64986537
Sym=     8a  
Ene=     0.1780
Spin= Alpha
Occup=    0.00000
   1         0.00000000
   2         0.00000000
   3        -0.80686231
   4         0.30775672
   5         0.00000000
   6        -0.00000000
   7         0.00000000
   8         0.80686231
   9        -0.30775672
  10         0.00000000
Sym=     8a  
Ene=     0.1780
Spin= Beta
Occup=    0.00000
   1         0.00000000
   2         0.00000000
   3        -0.80686231
   4         0.30775672
   5         0.00000000
   6        -0.00000000
   7         0.00000000
   8         0.80686231
   9        -0.30775672
  10         0.00000000
Sym=     9a  
Ene=     0.1780
Spin= Alpha
Occup=    0.00000
   1         0.00000000
   2         0.00000000
   3        -0.30775672
   4        -0.80686231
   5        -0.00000000
   6        -0.00000000
   7        -0.00000000
   8         0.30775672
   9         0.80686231
  10         0.00000000
Sym=     9a  
Ene=     0.1780
Spin= Beta
Occup=    0.00000
   1         0.00000000
   2         0.00000000
   3        -0.30775672
   4        -0.80686231
   5        -0.00000000
   6        -0.00000000
   7        -0.00000000
   8         0.30775672
   9         0.80686231
  10         0.00000000
Sym=    10a  
Ene=     0.8486
Spin= Alpha
Occup=    0.00000
   1         0.18282304
   2         1.19131647
   3         0.00000000
   4         0.00000000
   5         1.16683695
   6        -0.18282304
   7        -1.19131647
   8        -0.00000000
   9        -0.00000000
  10         1.16683695
Sym=    10a  
Ene=     0.8486
Spin= Beta
Occup=    0.00000
   1         0.18282304
   2         1.19131647
   3         0.00000000
   4         0.00000000
   5         1.16683695
   6        -0.18282304
   7        -1.19131647
   8        -0.00000000
   9        -0.00000000
  10         1.16683695
