[Molden Format]
[N_Atoms]
                     2
[Atoms] (AU)
C1          1      6           0.00000000      0.00000000      0.00000000
C2          2      6           0.00000000      0.00000000      2.45664396
[Charge] (Mulliken)
  4.121147867408581E-013
 -4.147793219999585E-013
[GTO] (AU)
   1
   s  14
  5.055750100E+04  1.128874000E-04
  7.524785600E+03  5.295373000E-04
  1.694327600E+03  2.450038300E-03
  4.728227900E+02  1.005398470E-02
  1.517107500E+02  3.545398060E-02
  5.391874600E+01  1.044071086E-01
  2.065931100E+01  2.412894918E-01
  8.383976000E+00  3.834225483E-01
  3.577015000E+00  3.078514393E-01
  1.547118000E+00  6.872442990E-02
  6.130130000E-01  2.224445000E-04
  2.460680000E-01  1.976748900E-03
  9.908700000E-02  2.057859400E-03
  3.468000000E-02  4.182020000E-04
   s  14
  5.055750100E+04 -2.507420000E-05
  7.524785600E+03 -1.175945000E-04
  1.694327600E+03 -5.456275000E-04
  4.728227900E+02 -2.245077100E-03
  1.517107500E+02 -8.043471800E-03
  5.391874600E+01 -2.442588710E-02
  2.065931100E+01 -6.136791180E-02
  8.383976000E+00 -1.177767835E-01
  3.577015000E+00 -1.550487783E-01
  1.547118000E+00 -1.933316860E-02
  6.130130000E-01  3.996930678E-01
  2.460680000E-01  5.589420949E-01
  9.908700000E-02  1.711195023E-01
  3.468000000E-02  7.456244600E-03
   p   9
  8.333315500E+01  1.344656000E-03
  1.955761100E+01  1.023555500E-02
  6.080365000E+00  4.520067100E-02
  2.179317000E+00  1.410756198E-01
  8.651500000E-01  3.047388085E-01
  3.619440000E-01  3.995281011E-01
  1.547400000E-01  2.719163432E-01
  6.542900000E-02  5.857669330E-02
  2.290000000E-02 -1.263813000E-04
 
   2
   s  14
  5.055750100E+04  1.128874000E-04
  7.524785600E+03  5.295373000E-04
  1.694327600E+03  2.450038300E-03
  4.728227900E+02  1.005398470E-02
  1.517107500E+02  3.545398060E-02
  5.391874600E+01  1.044071086E-01
  2.065931100E+01  2.412894918E-01
  8.383976000E+00  3.834225483E-01
  3.577015000E+00  3.078514393E-01
  1.547118000E+00  6.872442990E-02
  6.130130000E-01  2.224445000E-04
  2.460680000E-01  1.976748900E-03
  9.908700000E-02  2.057859400E-03
  3.468000000E-02  4.182020000E-04
   s  14
  5.055750100E+04 -2.507420000E-05
  7.524785600E+03 -1.175945000E-04
  1.694327600E+03 -5.456275000E-04
  4.728227900E+02 -2.245077100E-03
  1.517107500E+02 -8.043471800E-03
  5.391874600E+01 -2.442588710E-02
  2.065931100E+01 -6.136791180E-02
  8.383976000E+00 -1.177767835E-01
  3.577015000E+00 -1.550487783E-01
  1.547118000E+00 -1.933316860E-02
  6.130130000E-01  3.996930678E-01
  2.460680000E-01  5.589420949E-01
  9.908700000E-02  1.711195023E-01
  3.468000000E-02  7.456244600E-03
   p   9
  8.333315500E+01  1.344656000E-03
  1.955761100E+01  1.023555500E-02
  6.080365000E+00  4.520067100E-02
  2.179317000E+00  1.410756198E-01
  8.651500000E-01  3.047388085E-01
  3.619440000E-01  3.995281011E-01
  1.547400000E-01  2.719163432E-01
  6.542900000E-02  5.857669330E-02
  2.290000000E-02 -1.263813000E-04
 
[MO]
Sym=     1a  
Ene=   -11.3990
Spin= Alpha
Occup=    2.00000
   1         0.70683479
   2        -0.00181227
   3         0.00000000
   4         0.00000000
   5         0.00116060
   6         0.70683480
   7        -0.00181227
   8        -0.00000000
   9        -0.00000000
  10        -0.00116060
Sym=     2a  
Ene=   -11.3980
Spin= Alpha
Occup=    2.00000
   1        -0.70746638
   2         0.00111021
   3         0.00000000
   4         0.00000000
   5        -0.00170292
   6         0.70746638
   7        -0.00111021
   8        -0.00000000
   9        -0.00000000
  10        -0.00170292
Sym=     3a  
Ene=    -1.0390
Spin= Alpha
Occup=    2.00000
   1        -0.04923631
   2         0.47760222
   3         0.00000000
   4        -0.00000000
   5         0.23517904
   6        -0.04923631
   7         0.47760222
   8        -0.00000000
   9        -0.00000000
  10        -0.23517904
Sym=     4a  
Ene=    -0.4492
Spin= Alpha
Occup=    2.00000
   1        -0.00000000
   2         0.00000000
   3         0.55314580
   4        -0.26477088
   5        -0.00000000
   6         0.00000000
   7        -0.00000000
   8         0.55314580
   9        -0.26477088
  10        -0.00000000
Sym=     5a  
Ene=    -0.4492
Spin= Alpha
Occup=    2.00000
   1         0.00000000
   2        -0.00000000
   3         0.26477088
   4         0.55314580
   5         0.00000000
   6        -0.00000000
   7         0.00000000
   8         0.26477088
   9         0.55314580
  10         0.00000000
Sym=     6a  
Ene=    -0.4666
Spin= Alpha
Occup=    1.61125
   1        -0.00897966
   2        -0.65939560
   3        -0.00000000
   4        -0.00000000
   5         0.30965640
   6         0.00897966
   7         0.65939560
   8         0.00000000
   9        -0.00000000
  10         0.30965640
Sym=     7a  
Ene=     0.0000
Spin= Alpha
Occup=    0.38875
   1         0.04157400
   2         0.40381545
   3        -0.00000000
   4        -0.00000000
   5        -0.63476791
   6         0.04157400
   7         0.40381545
   8         0.00000000
   9        -0.00000000
  10         0.63476791
Sym=     8a  
Ene=     0.1925
Spin= Alpha
Occup=    0.00000
   1         0.00000000
   2         0.00000000
   3        -0.82196561
   4         0.26478958
   5         0.00000000
   6        -0.00000000
   7        -0.00000000
   8         0.82196561
   9        -0.26478958
  10        -0.00000000
Sym=     9a  
Ene=     0.1925
Spin= Alpha
Occup=    0.00000
   1         0.00000000
   2         0.00000000
   3        -0.26478958
   4        -0.82196561
   5         0.00000000
   6        -0.00000000
   7         0.00000000
   8         0.26478958
   9         0.82196561
  10         0.00000000
Sym=    10a  
Ene=     0.8616
Spin= Alpha
Occup=    0.00000
   1        -0.18362313
   2        -1.22672922
   3        -0.00000000
   4         0.00000000
   5        -1.15247948
   6         0.18362313
   7         1.22672922
   8         0.00000000
   9         0.00000000
  10        -1.15247948
