[Molden Format]
[N_Atoms]
                     2
[Atoms] (AU)
BE1         1      4           0.00000000      0.00000000      0.00000000
BE2         2      4           0.00000000      0.00000000      4.15739747
[Charge] (Mulliken)
   1.00000000000018     
  0.999999999999803     
[GTO] (AU)
   1
   s  14
  2.262859900E+04  8.443999941E-05
  3.372318100E+03  4.601499968E-04
  7.603504000E+02  2.285389984E-03
  2.117404800E+02  9.648129932E-03
  6.722346800E+01  3.494469975E-02
  2.337217700E+01  1.061099893E-01
  8.721373000E+00  2.458240383E-01
  3.468091000E+00  3.862428773E-01
  1.452144000E+00  3.105526078E-01
  6.086150000E-01  6.415933955E-02
  2.576860000E-01 -2.265049984E-03
  1.041760000E-01 -5.217499963E-04
  4.242700000E-02 -8.757499938E-04
  1.484900000E-02  1.242199991E-04
   s  14
  2.262859900E+04 -1.586999994E-05
  3.372318100E+03 -8.656999968E-05
  7.603504000E+02 -4.302199984E-04
  2.117404800E+02 -1.825079993E-03
  6.722346800E+01 -6.682749976E-03
  2.337217700E+01 -2.095119992E-02
  8.721373000E+00 -5.200308981E-02
  3.468091000E+00 -9.849176964E-02
  1.452144000E+00 -1.355800695E-01
  6.086150000E-01 -6.429875976E-02
  2.576860000E-01  3.125414989E-01
  1.041760000E-01  6.270468577E-01
  4.242700000E-02  2.110231492E-01
  1.484900000E-02 -4.104669985E-03
   p   9
  3.371018400E+01  1.069960000E-03
  8.057649500E+00  6.828550001E-03
  2.836471400E+00  2.119065000E-02
  1.099965700E+00  5.843696001E-02
  4.433964000E-01  2.020920800E-01
  1.822264000E-01  4.582953101E-01
  7.572410000E-02  3.691239601E-01
  3.168540000E-02  6.611471001E-02
  1.108990000E-02  1.405160000E-03
 
   2
   s  14
  2.262859900E+04  8.443999941E-05
  3.372318100E+03  4.601499968E-04
  7.603504000E+02  2.285389984E-03
  2.117404800E+02  9.648129932E-03
  6.722346800E+01  3.494469975E-02
  2.337217700E+01  1.061099893E-01
  8.721373000E+00  2.458240383E-01
  3.468091000E+00  3.862428773E-01
  1.452144000E+00  3.105526078E-01
  6.086150000E-01  6.415933955E-02
  2.576860000E-01 -2.265049984E-03
  1.041760000E-01 -5.217499963E-04
  4.242700000E-02 -8.757499938E-04
  1.484900000E-02  1.242199991E-04
   s  14
  2.262859900E+04 -1.586999994E-05
  3.372318100E+03 -8.656999968E-05
  7.603504000E+02 -4.302199984E-04
  2.117404800E+02 -1.825079993E-03
  6.722346800E+01 -6.682749976E-03
  2.337217700E+01 -2.095119992E-02
  8.721373000E+00 -5.200308981E-02
  3.468091000E+00 -9.849176964E-02
  1.452144000E+00 -1.355800695E-01
  6.086150000E-01 -6.429875976E-02
  2.576860000E-01  3.125414989E-01
  1.041760000E-01  6.270468577E-01
  4.242700000E-02  2.110231492E-01
  1.484900000E-02 -4.104669985E-03
   p   9
  3.371018400E+01  1.069960000E-03
  8.057649500E+00  6.828550001E-03
  2.836471400E+00  2.119065000E-02
  1.099965700E+00  5.843696001E-02
  4.433964000E-01  2.020920800E-01
  1.822264000E-01  4.582953101E-01
  7.572410000E-02  3.691239601E-01
  3.168540000E-02  6.611471001E-02
  1.108990000E-02  1.405160000E-03
 
[MO]
Sym=     1a  
Ene=    -5.3708
Spin= Alpha
Occup=    2.00000
   1        -0.70677867
   2         0.00117094
   3        -0.00000000
   4         0.00000000
   5         0.00260956
   6         0.70677867
   7        -0.00117094
   8         0.00000000
   9         0.00000000
  10         0.00260956
Sym=     2a  
Ene=    -5.3705
Spin= Alpha
Occup=    2.00000
   1         0.70754456
   2        -0.00322526
   3        -0.00000000
   4        -0.00000000
   5        -0.00313483
   6         0.70754456
   7        -0.00322526
   8        -0.00000000
   9         0.00000000
  10         0.00313483
Sym=     3a  
Ene=    -0.8798
Spin= Alpha
Occup=    1.97629
   1        -0.03647960
   2         0.46921976
   3        -0.00000000
   4         0.00000000
   5         0.25017497
   6        -0.03647960
   7         0.46921976
   8         0.00000000
   9        -0.00000000
  10        -0.25017497
Sym=     4a  
Ene=     0.0000
Spin= Alpha
Occup=    0.02371
   1         0.00000000
   2         0.00000000
   3        -0.07299017
   4         0.61317645
   5         0.00000000
   6        -0.00000000
   7        -0.00000000
   8        -0.07299017
   9         0.61317645
  10         0.00000000
Sym=     5a  
Ene=    -0.4840
Spin= Alpha
Occup=    0.00000
   1         0.01296607
   2         0.73500050
   3         0.00000000
   4        -0.00000000
   5        -0.22778154
   6        -0.01296607
   7        -0.73500050
   8         0.00000000
   9        -0.00000000
  10        -0.22778154
Sym=     6a  
Ene=    -0.4251
Spin= Alpha
Occup=    0.00000
   1         0.00000000
   2         0.00000000
   3         0.61317645
   4         0.07299017
   5        -0.00000000
   6         0.00000000
   7         0.00000000
   8         0.61317645
   9         0.07299017
  10         0.00000000
Sym=     7a  
Ene=    -0.4137
Spin= Alpha
Occup=    0.00000
   1         0.03173930
   2         0.41895389
   3        -0.00000000
   4        -0.00000000
   5        -0.61237257
   6         0.03173930
   7         0.41895389
   8        -0.00000000
   9         0.00000000
  10         0.61237257
Sym=     8a  
Ene=    -0.3099
Spin= Alpha
Occup=    0.00000
   1        -0.00000000
   2         0.00000000
   3         0.10071187
   4        -0.84606111
   5         0.00000000
   6        -0.00000000
   7         0.00000000
   8        -0.10071187
   9         0.84606111
  10        -0.00000000
Sym=     9a  
Ene=    -0.3094
Spin= Alpha
Occup=    0.00000
   1         0.00000000
   2        -0.00000000
   3        -0.84606111
   4        -0.10071187
   5        -0.00000000
   6        -0.00000000
   7        -0.00000000
   8         0.84606111
   9         0.10071187
  10         0.00000000
Sym=    10a  
Ene=    -0.1185
Spin= Alpha
Occup=    0.00000
   1        -0.15551142
   2        -1.14385861
   3        -0.00000000
   4         0.00000000
   5        -1.20984571
   6         0.15551142
   7         1.14385861
   8        -0.00000000
   9         0.00000000
  10        -1.20984571
