   This run of MOLCAS is using the pymolcas driver

                             OPE
                             OPE          NMOL  CASOP  ENMOLC A   SO
                 OPE        NMOLC        AS  OP EN  MO LC     AS  OP
                OPENM       OL CA        SO  PE NM  OL CA     SOP EN
                OP EN      MO   LC       AS  OP ENMOL  CASO   PENMOL
                OP  EN     MO   LC       AS  OP EN     MO     LC ASO
               OP   E  NMOL  C  AS       OP  EN MO     LC     AS  OP
               OP  E   NMO   LC AS        OPEN  MO     LCASOP EN   M
               O  PEN   MO  LCA  SO
            OPE   NMO   L   CAS    OP
        OPENMOL  CASOP     ENMOL   CASOPE
     OPENMOLCA   SOPENMOLCASOPEN   MOLCASOPE
    OPENMOLCAS   OP           EN   MOL    CAS
    OPENMOLCAS       OP  ENM        O     LCA
    OPENMOLCAS    OPEN  MOLCASO     P  E  NMO
    OPENMOLCAS     OP               E  N  MOL
    OPENMOLCA   SO           PENM   O  L  CAS    OPEN    MO    LCAS
    OPENMOLCA   SOP           ENM   O  L  CAS   OP  EN  MOLC  AS   O
    OPENMOLCA   SOPE           NM      O  LCA   S      OP  EN MO
    OPENMOLC                AS         O  PEN   M      OL  CA  SOPE
    OPENMO        LCASOPE  NMOL        C  ASO   P      ENMOLC     AS
    OPE     NMO      LCA  SO     P     E   NM   OL  CA SO  PE N   MO
          OPENMOLCA            SOPE   NMO        LCAS  O    P  ENMO
     OPENMOLCASOPENMOLCASOPENMOLCASOPENMOLCA
        OPENMOLCASOPENMOLCASOPENMOLCASOPE
            OPENMOLCASOPENMOLCASOPENM
               OPENMOLCASOPENMOLCA        version: ea724fe96-dirty
                   OPENMOLCASO
                       OPE                tag:

 OpenMolcas is free software; you can redistribute it and/or modify it
 under the terms of the GNU Lesser General Public License version 2.1.
 OpenMolcas is distributed in the hope that it will be useful, but it
 is provided "as is" and without any express or implied warranties.
 For more details see the full text of the license in the file
 LICENSE or in <http://www.gnu.org/licenses/>.

                 Copyright (C) The OpenMolcas Authors
           For the author list and the recommended citation,
                   consult the file CONTRIBUTORS.md

           *************************************************
           * pymolcas version py2.28                       *
           *   build c4a6d18ded8cb6cad61d2372a9abd97c      *
           *   (after the EMIL interpreter by V. Veryazov) *
           *************************************************

configuration info
------------------
C Compiler ID: Intel
C flags: -std=gnu99
Fortran Compiler ID: Intel
Fortran flags: -fpp -i8 -r8 -heap-arrays
Definitions: _MOLCAS_;_I8_;_LINUX_
Parallel: OFF (GA=OFF)


   -------------------------------------------------------------------------------
  |
  |              Project: 3.09
  |       Submitted from: /home/grierjones/DDCASPT2/iron_oxo_DDCASPT2/cluster/3.09
  |         Scratch area: /tmp/3.09
  |      Save outputs to: /home/grierjones/DDCASPT2/iron_oxo_DDCASPT2/cluster/3.09
  |               Molcas: /home/grierjones/Test/build
  |
  | Scratch area is empty
  |
  |       MOLCAS_DRIVER = /usr/local/pymolcas
  | MOLCAS_KEEP_WORKDIR = NO
  |  MOLCAS_NEW_WORKDIR = YES
  |       MOLCAS_NPROCS = 1
  |        MOLCAS_PRINT = NORMAL
  |       MOLCAS_SOURCE = /home/grierjones/Test/build
  |    MOLCAS_STRUCTURE = 0
  |
   -------------------------------------------------------------------------------

++ ---------   Input file   ---------

&GATEWAY
coord=3.09.xyz
Basis = ANO-RCC-VDZP
Group = nosymm
Expert
End of Input

&SEWARD
End of Input

&SCF
UHF
charge
2
spin
5

>>> COPY $WorkDir/3.09.scf.h5 $CurrDir/

&RASSCF
Title= RASSCF
FileOrb
/home/grierjones/DDCASPT2/iron_oxo_DDCASPT2/cluster/3.08/3.08.RasOrb
NACTEL
10 0 0
RAS2
14
Symmetry
1
Spin
5
charge
2
orblisting
all
ITERation
300 200

>>> COPY $WorkDir/3.09.rasscf.h5 $CurrDir/

>>> COPY $WorkDir/GMJ_Fock_MO.csv $CurrDir/3.09.GMJ_Fock_MO.csv

>>> COPY $WorkDir/GMJ_PT2_Fock_MO.csv $CurrDir/3.09.GMJ_PT2_Fock_MO.csv

&MOTRA
Frozen=0
LUMORB

>>> COPY $WorkDir/GMJ_one_int_indx.csv $CurrDir/3.09.GMJ_one_int_indx.csv

>>> COPY $WorkDir/GMJ_one_int.csv $CurrDir/3.09.GMJ_one_int.csv

>>> COPY $WorkDir/GMJ_two_int_indx.csv $CurrDir/3.09.GMJ_two_int_indx.csv

>>> COPY $WorkDir/GMJ_two_int.csv $CurrDir/3.09.GMJ_two_int.csv

&CASPT2
Frozen
0
MAXITER
50

>>> FOREACH i IN (B,E,F,G,H)

  >>> FOREACH j IN (P,M)

    >>> IF (-FILE GMJ_e2_${i}_${j}.csv)

      >>> COPY $WorkDir/GMJ_RHS_${i}_${j}.csv $CurrDir/GMJ_RHS_${i}_${j}.csv

      >>> COPY $WorkDir/GMJ_IVECW_${i}_${j}.csv $CurrDir/GMJ_IVECW_${i}_${j}.csv

      >>> COPY $WorkDir/GMJ_IVECX_${i}_${j}.csv $CurrDir/GMJ_IVECX_${i}_${j}.csv

      >>> COPY $WorkDir/GMJ_IVECC2_${i}_${j}.csv $CurrDir/GMJ_IVECC2_${i}_${j}.csv

      >>> COPY $WorkDir/GMJ_e2_${i}_${j}.csv $CurrDir/GMJ_e2_${i}_${j}.csv

    >>> END IF

  >>> END FOREACH

>>> END FOREACH

>>> FOREACH i IN (A,C,D)

  >>> IF (-FILE GMJ_e2_$i.csv)

    >>> COPY $WorkDir/GMJ_RHS_$i.csv $CurrDir/GMJ_RHS_$i.csv

    >>> COPY $WorkDir/GMJ_IVECW_$i.csv $CurrDir/GMJ_IVECW_$i.csv

    >>> COPY $WorkDir/GMJ_IVECX_$i.csv $CurrDir/GMJ_IVECX_$i.csv

    >>> COPY $WorkDir/GMJ_IVECC2_$i.csv $CurrDir/GMJ_IVECC2_$i.csv

    >>> COPY $WorkDir/GMJ_e2_$i.csv $CurrDir/GMJ_e2_$i.csv

  >>> END IF

>>> END FOREACH

-- ----------------------------------

--- Start Module: gateway at Sun Dec 22 22:06:58 2024 ---
 
()()()()()()()()()()()()()()()()()()()()()()()()()()()()()()()()()()()()()()()()()()()()()()()()()()

                                              &GATEWAY

                                   only a single process is used
                       available to each process: 2.0 GB of memory, 1 thread?
()()()()()()()()()()()()()()()()()()()()()()()()()()()()()()()()()()()()()()()()()()()()()()()()()()
 
 ###############################################################################
 ###############################################################################
 ###                                                                         ###
 ###                                                                         ###
 ###                                                                         ###
 ###    WARNING: EXPERT option is ON!                                        ###
 ###                                                                         ###
 ###                                                                         ###
 ###############################################################################
 ###############################################################################
 
++    Symmetry information:
      ---------------------
 
                    Character Table for C1 
 
                             E  
                    a        1  x, y, xy, Rz, z, xz, Ry, yz, Rx, I
--
 
 
++    Basis set information:
      ----------------------
 
 
      Basis set label: O.ANO-RCC...3S2P1D.
 
      Electronic valence basis set:
      ------------------
      Associated Effective Charge   8.000000 au
      Associated Actual Charge      8.000000 au
      Nuclear Model: Point charge
 
      Shell  nPrim  nBasis  Cartesian Spherical Contaminant
         s      14       3        X                  
         p       9       2        X                  
         d       4       1                 X         
 
 
      Basis set label: FE.ANO-RCC...5S4P2D1F.
 
      Electronic valence basis set:
      ------------------
      Associated Effective Charge  26.000000 au
      Associated Actual Charge     26.000000 au
      Nuclear Model: Point charge
 
      Shell  nPrim  nBasis  Cartesian Spherical Contaminant
         s      21       5        X                  
         p      15       4        X                  
         d      10       2                 X         
         f       6       1                 X         
--
 
 
++    Molecular structure info:
      -------------------------
 
                    ************************************************ 
                    **** Cartesian Coordinates / Bohr, Angstrom **** 
                    ************************************************ 
 
     Center  Label                x              y              z                     x              y              z
        1      O1               0.000000       0.000000       4.434223              0.000000       0.000000       2.346490
        2      FE2              0.000000       0.000000      -1.410662              0.000000       0.000000      -0.746490
--
 
 
            Nuclear Potential Energy             35.58667040 au
 
 ###############################################################################
 ###############################################################################
 ###                                                                         ###
 ###                                                                         ###
 ###    There were warnings during the execution                             ###
 ###    Please, check the output with care!                                  ###
 ###                                                                         ###
 ###                                                                         ###
 ###############################################################################
 ###############################################################################
--- Stop Module: gateway at Sun Dec 22 22:06:58 2024 /rc=_RC_ALL_IS_WELL_ ---
*** files: xmldump
    saved to directory /home/grierjones/DDCASPT2/iron_oxo_DDCASPT2/cluster/3.09

--- Start Module: seward at Sun Dec 22 22:06:58 2024 ---
 
()()()()()()()()()()()()()()()()()()()()()()()()()()()()()()()()()()()()()()()()()()()()()()()()()()

                                              &SEWARD

                                   only a single process is used
                       available to each process: 2.0 GB of memory, 1 thread?
()()()()()()()()()()()()()()()()()()()()()()()()()()()()()()()()()()()()()()()()()()()()()()()()()()
 
 ###############################################################################
 ###############################################################################
 ###                                                                         ###
 ###                                                                         ###
 ###                                                                         ###
 ###    WARNING: EXPERT option is ON!                                        ###
 ###                                                                         ###
 ###                                                                         ###
 ###############################################################################
 ###############################################################################
               SEWARD will generate:
                  Multipole Moment integrals up to order  2
                  Kinetic Energy integrals
                  Nuclear Attraction integrals (point charge)
                  One-Electron Hamiltonian integrals
                  Velocity integrals
                  Relativistic Douglas-Kroll-Hess integrals:
                    - Parametrization         : EXP
                    - DKH order of Hamiltonian: 2
                    - DKH order of Properties : 0
                         - multipole moment operators
                         - electric potential operators
                         - contact operators
                  Atomic mean-field integrals
                  Two-Electron Repulsion integrals
 
                   Integrals are discarded if absolute value <: 0.10E-13
                   Integral cutoff threshold is set to       <: 0.10E-15
 
            Nuclear Potential Energy             35.58667040 au
 
 
      Basis set specifications :
      Symmetry species         a  
      Basis functions           48
 
 
  Input file to MOLDEN was generated!
 
 ###############################################################################
 ###############################################################################
 ###                                                                         ###
 ###                                                                         ###
 ###    There were warnings during the execution                             ###
 ###    Please, check the output with care!                                  ###
 ###                                                                         ###
 ###                                                                         ###
 ###############################################################################
 ###############################################################################
--- Stop Module: seward at Sun Dec 22 22:06:59 2024 /rc=_RC_ALL_IS_WELL_ ---
*** files: 3.09.GssOrb 3.09.guessorb.h5 3.09.guessorb.molden xmldump
    saved to directory /home/grierjones/DDCASPT2/iron_oxo_DDCASPT2/cluster/3.09

*** symbolic link created: INPORB -> 3.09.GssOrb
--- Start Module: scf at Sun Dec 22 22:06:59 2024 ---
 
()()()()()()()()()()()()()()()()()()()()()()()()()()()()()()()()()()()()()()()()()()()()()()()()()()

                                                &SCF

                                   only a single process is used
                       available to each process: 2.0 GB of memory, 1 thread?
()()()()()()()()()()()()()()()()()()()()()()()()()()()()()()()()()()()()()()()()()()()()()()()()()()
 
 *** Possible bug in opening file
 *** isFreeUnit resets the unit number
++    Input section:
      --------------
 
      Header of the integral files:
      
       Integrals generated by seward 4.2.0  , Sun Dec 22 22:06:58 2024
 
 
      Cartesian coordinates in Angstrom:
      -----------------------------------------------------
      No.  Label        X            Y            Z        
      -----------------------------------------------------
       1   O1         0.00000000   0.00000000   2.34649000
       2   FE2        0.00000000   0.00000000  -0.74649000
      -----------------------------------------------------
      Nuclear repulsion energy =   35.58667040
--
 
++    Orbital specifications:
      -----------------------
 
      Symmetry species               1
                                     a
      Frozen orbitals                0
      Start temperature = 0.500
      End temperature   = 0.010
      Temperature Factor= 0.460
      Deleted orbitals               0
      Total number of orbitals      48
      Number of basis functions     48
--
 
      Molecular charge                           2.000
 
++    Optimization specifications:
      ----------------------------
 
      SCF Algorithm: Conventional USCF
      D(i)-D(i-1) density differences are used
      Number of density matrices in core                5
      Maximum number of NDDO SCF iterations           400
      Maximum number of HF SCF iterations             400
      Threshold for SCF energy change            0.10E-08
      Threshold for density matrix               0.10E-03
      Threshold for Fock matrix                  0.15E-03
      Threshold for linear dependence            0.10E-08
      Threshold at which DIIS is turned on       0.15E+00
      Threshold at which QNR/C2DIIS is turned on 0.75E-01
      Threshold for Norm(delta) (QNR/C2DIIS)     0.20E-04
      DIIS extrapolation of the SCF procedure
      All orbitals punched on: UHFORB
--
 
      Input vectors read from INPORB
      Orbital file label: *Guess orbitals
 
 
++ Convergence information
                               UHF SCF        iterations: Energy and convergence statistics
 
Iter     Tot. SCF        One-elec.       Two-elec.     Energy      Max Dij or  Max Fij      DNorm      TNorm      AccCon     Time
         Energy          Energy          Energy        Change      Delta Norm                                                in Sec.
 
 The total and one-electron energies are shifted by a value of      1000. a.u.
 
   1  -343.230826154  -902.782805315   523.965308759   0.00E+00    0.16E+00*   0.40E+00*    0.75E+01   0.18E+03   None         0.
   2  -343.444568320  -898.666226507   519.634987784  -0.21E+00*   0.15E+00*   0.22E+00*    0.11E+01   0.18E+03   EDIIS        0.
   3  -341.747159933  -945.765480016   568.431649681   0.17E+01*   0.68E-01*   0.22E+00*    0.18E+01   0.19E+03   EDIIS        0.
   4  -343.180833919  -888.676404819   509.908900498  -0.14E+01*   0.16E+00*   0.10E+00*    0.15E+01   0.18E+03   EDIIS        0.
   5  -344.269423462  -917.274520406   537.418426543  -0.11E+01*   0.30E+00*   0.98E-01*    0.11E+01   0.18E+03   EDIIS        0.
   6  -344.508075091  -896.017910659   515.923165166  -0.24E+00*   0.56E+00*   0.27E+00*    0.17E+01   0.18E+03   EDIIS        0.
   7  -343.337330651  -926.951218230   548.027217177   0.12E+01*   0.86E-01*   0.85E-01*    0.29E+01   0.19E+03   EDIIS        0.
   8  -345.200380172  -903.755216609   522.968166035  -0.19E+01*   0.42E+00*   0.12E+00*    0.15E+01   0.18E+03   EDIIS        0.
   9  -345.293694974  -903.941942431   523.061577055  -0.93E-01*   0.10E+00*   0.13E+00*    0.10E+01   0.18E+03   EDIIS        0.
  10  -345.311185258  -904.243453630   523.345597970  -0.17E-01*   0.44E-01*   0.31E-01*    0.36E+00   0.18E+03   EDIIS        0.
  11  -345.314017749  -904.068926315   523.168238164  -0.28E-02*   0.31E-01*   0.15E-01*    0.14E+00   0.18E+03   EDIIS        0.
 
       Fermi aufbau procedure completed!
      nOcc(alpha)=   18
      nOcc(beta) =   14
 
  12  -345.314822878  -904.169537916   523.268044636  -0.81E-03*   0.17E-01*   0.50E-02*    0.69E-01   0.18E+03   EDIIS        0.
  13  -345.315142208  -904.120168158   523.218355548  -0.32E-03*   0.15E-01*   0.38E-02*    0.42E-01   0.18E+03   EDIIS        0.
  14  -345.315295823  -904.138039086   523.236072862  -0.15E-03*   0.10E-01*   0.25E-02*    0.30E-01   0.18E+03   EDIIS        0.
  15  -345.315374316  -904.126842737   523.224798020  -0.78E-04*   0.77E-02*   0.17E-02*    0.21E-01   0.18E+03   EDIIS        0.
  16  -345.315415396  -904.128718778   523.226632980  -0.41E-04*   0.52E-03*   0.49E-02*    0.16E-01   0.18E+03   c2DIIS       0.
  17  -345.315461321  -904.118340449   523.216208726  -0.46E-04*   0.46E-03*   0.15E-03     0.20E-02   0.18E+03   QNRc2DIIS    0.
  18  -345.315461404  -904.124771302   523.222639496  -0.83E-07*   0.21E-03*   0.52E-04     0.67E-03   0.18E+03   QNRc2DIIS    0.
  19  -345.315461423  -904.123341973   523.221210149  -0.19E-07*   0.15E-03*   0.21E-04     0.31E-03   0.18E+03   QNRc2DIIS    0.
  20  -345.315461426  -904.122820354   523.220688526  -0.35E-08*   0.11E-03*   0.64E-05     0.20E-03   0.18E+03   QNRc2DIIS    0.
  21  -345.315461427  -904.122870566   523.220738737  -0.65E-09    0.30E-04*   0.17E-05     0.14E-03   0.18E+03   QNRc2DIIS    0.
  22  -345.315461427  -904.122882591   523.220750762  -0.48E-10    0.21E-05    0.22E-06     0.39E-04   0.18E+03   QNRc2DIIS    0.
 
       Convergence after 22 Macro Iterations
--
 
 *****************************************************************************************************************************
 *                                                                                                                           *
 *                                             SCF/KS-DFT Program, Final results                                             *
 *                                                                                                                           *
 *                                                                                                                           *
 *                                                                                                                           *
 *                                                       Final Results                                                       *
 *                                                                                                                           *
 *****************************************************************************************************************************
 
::    Total SCF energy                              -1345.3154614272
      One-electron energy                           -1904.1228825906
      Two-electron energy                             523.2207507616
      Nuclear repulsion energy                         35.5866704018
      Kinetic energy (interpolated)                  1399.7872397683
      Virial theorem                                    0.9610856730
      Total spin, S(S+1)                                8.0153599223
      Total spin, S                                     2.3749538992
      Max non-diagonal density matrix element           0.0000014632
      Max non-diagonal Fock matrix element              0.0000000970
 
 
      All orbitals with orbital energies smaller than  E(LUMO)+0.5 are printed
 
++    Molecular orbitals:
      -------------------
 
      Title: UHF orbitals (alpha)

      Molecular orbitals for symmetry species 1: a  
 
          Orbital            1         2         3         4         5         6         7         8         9        10    
          Energy         -264.5981  -33.4758  -28.5396  -28.5395  -28.5395  -21.0091   -5.4237   -3.9638   -3.9638   -3.9633
          Occ. No.          1.0000    1.0000    1.0000    1.0000    1.0000    1.0000    1.0000    1.0000    1.0000    1.0000
 
        1 O1     1s         0.0000   -0.0000   -0.0000   -0.0000    0.0000    1.0000   -0.0000   -0.0000   -0.0000   -0.0000
        2 O1     2s         0.0000   -0.0000   -0.0002   -0.0000    0.0000   -0.0021   -0.0001   -0.0000    0.0000    0.0003
        3 O1     3s         0.0000   -0.0000   -0.0002   -0.0000    0.0000    0.0006   -0.0000   -0.0000   -0.0000    0.0005
        4 O1     2px        0.0000    0.0000    0.0000   -0.0000    0.0000    0.0000   -0.0000    0.0000    0.0000    0.0000
        5 O1     3px       -0.0000    0.0000    0.0000   -0.0001    0.0001   -0.0000    0.0000    0.0000    0.0000    0.0000
        6 O1     2py        0.0000   -0.0000   -0.0000   -0.0000   -0.0000    0.0000    0.0000   -0.0000    0.0000    0.0000
        7 O1     3py        0.0000   -0.0000   -0.0000   -0.0001   -0.0001   -0.0000    0.0000   -0.0000    0.0000    0.0000
        8 O1     2pz       -0.0000   -0.0000    0.0001    0.0000   -0.0000   -0.0003   -0.0007    0.0000   -0.0000   -0.0008
        9 O1     3pz       -0.0000   -0.0001    0.0001    0.0000   -0.0000   -0.0000   -0.0013    0.0000    0.0000   -0.0013
       10 O1     3d2-       0.0000   -0.0000    0.0000    0.0000   -0.0000    0.0000    0.0000    0.0000    0.0000   -0.0000
       11 O1     3d1-       0.0000    0.0000   -0.0000    0.0000    0.0000   -0.0000   -0.0000    0.0000   -0.0001    0.0000
       12 O1     3d0       -0.0000    0.0000   -0.0000    0.0000   -0.0000    0.0010    0.0003   -0.0000   -0.0000    0.0004
       13 O1     3d1+       0.0000   -0.0000   -0.0000    0.0000   -0.0000    0.0000    0.0000   -0.0001   -0.0000   -0.0000
       14 O1     3d2+       0.0000    0.0000   -0.0000    0.0000   -0.0000    0.0000    0.0000   -0.0000   -0.0000   -0.0000
       15 FE2    1s         1.0000   -0.0000   -0.0000   -0.0000    0.0000   -0.0000    0.0000    0.0000    0.0000   -0.0000
       16 FE2    2s         0.0000    1.0000   -0.0000   -0.0000    0.0000   -0.0000   -0.0035    0.0000   -0.0000   -0.0000
       17 FE2    3s        -0.0000    0.0035    0.0000    0.0000   -0.0000   -0.0000    0.9998    0.0000   -0.0000   -0.0004
       18 FE2    4s         0.0000   -0.0004    0.0001    0.0000   -0.0000   -0.0002   -0.0081    0.0000    0.0000   -0.0007
       19 FE2    5s        -0.0000    0.0004    0.0001    0.0000   -0.0000   -0.0001    0.0082    0.0000   -0.0000   -0.0002
       20 FE2    2px        0.0000   -0.0000   -0.0000    0.7052   -0.7090    0.0000   -0.0000   -0.0029   -0.0020   -0.0000
       21 FE2    3px       -0.0000    0.0000   -0.0000    0.0024   -0.0025    0.0000   -0.0000    0.8257    0.5635    0.0000
       22 FE2    4px        0.0000   -0.0000    0.0000   -0.0004    0.0004    0.0000    0.0000   -0.0157   -0.0107   -0.0000
       23 FE2    5px        0.0000   -0.0000   -0.0000    0.0011   -0.0011    0.0000    0.0000    0.0150    0.0102    0.0000
       24 FE2    2py        0.0000   -0.0000    0.0000    0.7090    0.7052   -0.0000   -0.0000    0.0020   -0.0029    0.0000
       25 FE2    3py        0.0000    0.0000    0.0000    0.0025    0.0024   -0.0000    0.0000   -0.5635    0.8257   -0.0000
       26 FE2    4py       -0.0000    0.0000   -0.0000   -0.0004   -0.0004   -0.0000   -0.0000    0.0107   -0.0157    0.0000
       27 FE2    5py       -0.0000    0.0000    0.0000    0.0011    0.0011   -0.0000   -0.0000   -0.0102    0.0150   -0.0000
       28 FE2    2pz        0.0000    0.0000    1.0000    0.0000   -0.0000   -0.0000   -0.0000    0.0000    0.0000   -0.0035
       29 FE2    3pz       -0.0000    0.0000    0.0035    0.0000   -0.0000   -0.0000    0.0002   -0.0000   -0.0000    0.9996
       30 FE2    4pz       -0.0000   -0.0000   -0.0005   -0.0000    0.0000   -0.0002   -0.0004    0.0000    0.0000   -0.0199
       31 FE2    5pz       -0.0000    0.0000    0.0015    0.0000   -0.0000   -0.0001   -0.0003   -0.0000   -0.0000    0.0181
       32 FE2    3d2-       0.0000   -0.0000   -0.0000    0.0000    0.0000    0.0000   -0.0000    0.0000    0.0000   -0.0000
       33 FE2    4d2-       0.0000    0.0000    0.0000   -0.0000    0.0000   -0.0000    0.0000   -0.0000    0.0000    0.0000
       34 FE2    3d1-       0.0000    0.0000    0.0000    0.0000    0.0000   -0.0000   -0.0000   -0.0002    0.0002   -0.0000
       35 FE2    4d1-      -0.0000    0.0000    0.0000    0.0000    0.0000   -0.0000   -0.0000    0.0001   -0.0001   -0.0000
       36 FE2    3d0       -0.0000   -0.0000    0.0000    0.0000   -0.0000   -0.0000   -0.0003   -0.0000    0.0000    0.0004
       37 FE2    4d0       -0.0000   -0.0000    0.0001    0.0000   -0.0000   -0.0001   -0.0002    0.0000    0.0000   -0.0007
       38 FE2    3d1+       0.0000   -0.0000   -0.0000    0.0000   -0.0000   -0.0000   -0.0000    0.0002    0.0002    0.0000
       39 FE2    4d1+       0.0000   -0.0000   -0.0000    0.0000   -0.0000    0.0000    0.0000   -0.0001   -0.0001   -0.0000
       40 FE2    3d2+       0.0000   -0.0000   -0.0000    0.0000   -0.0000   -0.0000   -0.0000    0.0000   -0.0000    0.0000
       41 FE2    4d2+      -0.0000    0.0000    0.0000   -0.0000   -0.0000   -0.0000    0.0000   -0.0000    0.0000   -0.0000
       42 FE2    4f3-      -0.0000   -0.0000    0.0000   -0.0000   -0.0000    0.0000   -0.0000    0.0000   -0.0000   -0.0000
       43 FE2    4f2-       0.0000    0.0000   -0.0000    0.0000    0.0000   -0.0000   -0.0000   -0.0000   -0.0000    0.0000
       44 FE2    4f1-      -0.0000    0.0000    0.0000    0.0000    0.0000   -0.0000   -0.0000    0.0001   -0.0001   -0.0000
       45 FE2    4f0       -0.0000    0.0000    0.0000    0.0000   -0.0000   -0.0000   -0.0000    0.0000    0.0000   -0.0002
       46 FE2    4f1+       0.0000   -0.0000   -0.0000    0.0000   -0.0000    0.0000   -0.0000   -0.0001   -0.0001   -0.0000
       47 FE2    4f2+      -0.0000    0.0000   -0.0000    0.0000   -0.0000   -0.0000   -0.0000   -0.0000    0.0000   -0.0000
       48 FE2    4f3+      -0.0000   -0.0000   -0.0000    0.0000   -0.0000    0.0000    0.0000    0.0000    0.0000    0.0000
 
          Orbital           11        12        13        14        15        16        17        18        19        20    
          Energy           -1.6447   -1.6447   -1.6441   -1.6441   -1.6441   -1.4471   -0.9507   -0.8692   -0.4727   -0.4727
          Occ. No.          1.0000    1.0000    1.0000    1.0000    1.0000    1.0000    1.0000    1.0000    0.0000    0.0000
 
        1 O1     1s        -0.0000   -0.0000    0.0000    0.0000   -0.0000    0.0020   -0.0022    0.0014    0.0000   -0.0000
        2 O1     2s        -0.0000   -0.0000    0.0149    0.0000   -0.0000    0.9957   -0.0783    0.0392    0.0000   -0.0000
        3 O1     3s         0.0000    0.0000   -0.0010   -0.0000    0.0000    0.0196    0.0038   -0.0174    0.0000   -0.0000
        4 O1     2px        0.0000   -0.0000    0.0000   -0.0000    0.0004    0.0000   -0.0000    0.0000   -0.0014    0.0327
        5 O1     3px       -0.0000   -0.0000   -0.0000   -0.0000    0.0000   -0.0000    0.0000    0.0000    0.0002   -0.0037
        6 O1     2py        0.0000    0.0000    0.0000    0.0004    0.0000    0.0000    0.0000   -0.0000    0.0327    0.0014
        7 O1     3py       -0.0000   -0.0000    0.0000    0.0000    0.0000    0.0000    0.0000   -0.0000   -0.0037   -0.0002
        8 O1     2pz        0.0000    0.0000   -0.0026   -0.0000    0.0000   -0.0413   -0.3567    0.9048   -0.0000   -0.0000
        9 O1     3pz       -0.0000   -0.0000    0.0052    0.0000   -0.0000   -0.0150    0.0078    0.0490   -0.0000   -0.0000
       10 O1     3d2-      -0.0000    0.0000   -0.0000    0.0000    0.0000   -0.0000    0.0000    0.0000   -0.0000    0.0000
       11 O1     3d1-       0.0000    0.0000   -0.0000    0.0002    0.0000   -0.0000   -0.0000    0.0000   -0.0022   -0.0001
       12 O1     3d0        0.0000    0.0000   -0.0003   -0.0000    0.0000    0.0323    0.0040   -0.0140   -0.0000   -0.0000
       13 O1     3d1+       0.0000   -0.0000    0.0000   -0.0000    0.0002    0.0000    0.0000   -0.0000    0.0001   -0.0022
       14 O1     3d2+       0.0000    0.0000   -0.0000   -0.0000   -0.0000    0.0000   -0.0000    0.0000   -0.0000   -0.0000
       15 FE2    1s        -0.0000   -0.0000    0.0000    0.0000   -0.0000   -0.0001   -0.0001    0.0003   -0.0000   -0.0000
       16 FE2    2s        -0.0000   -0.0000    0.0001    0.0000   -0.0000   -0.0004   -0.0001    0.0023   -0.0000    0.0000
       17 FE2    3s        -0.0000   -0.0000    0.0005    0.0000   -0.0000   -0.0025    0.0065    0.0158   -0.0000   -0.0000
       18 FE2    4s        -0.0000   -0.0000    0.0026    0.0000   -0.0000    0.0114    0.8401    0.4244   -0.0000    0.0000
       19 FE2    5s        -0.0000    0.0000    0.0001    0.0000   -0.0000   -0.0083   -0.3301   -0.1682   -0.0000   -0.0000
       20 FE2    2px        0.0000   -0.0000   -0.0000    0.0000   -0.0000    0.0000   -0.0000   -0.0000   -0.0000    0.0005
       21 FE2    3px       -0.0000    0.0000   -0.0000    0.0000   -0.0003   -0.0000   -0.0000    0.0000   -0.0008    0.0184
       22 FE2    4px        0.0000    0.0000   -0.0000    0.0000   -0.0005    0.0000   -0.0000    0.0000   -0.0432    0.9966
       23 FE2    5px        0.0000   -0.0000   -0.0000    0.0000   -0.0001    0.0000   -0.0000   -0.0000   -0.0015    0.0345
       24 FE2    2py        0.0000   -0.0000    0.0000   -0.0000   -0.0000    0.0000    0.0000   -0.0000    0.0005    0.0000
       25 FE2    3py       -0.0000    0.0000    0.0000   -0.0003   -0.0000   -0.0000   -0.0000    0.0000    0.0184    0.0008
       26 FE2    4py        0.0000    0.0000    0.0000   -0.0005   -0.0000    0.0000   -0.0000   -0.0000    0.9966    0.0432
       27 FE2    5py       -0.0000   -0.0000    0.0000   -0.0001   -0.0000    0.0000    0.0000   -0.0000    0.0345    0.0015
       28 FE2    2pz        0.0000    0.0000    0.0000    0.0000   -0.0000   -0.0001   -0.0001    0.0003   -0.0000    0.0000
       29 FE2    3pz        0.0000    0.0000   -0.0004   -0.0000    0.0000   -0.0025   -0.0021    0.0060   -0.0000   -0.0000
       30 FE2    4pz       -0.0000   -0.0000    0.0010    0.0000   -0.0000    0.0101    0.0138   -0.1323   -0.0000   -0.0000
       31 FE2    5pz       -0.0000   -0.0000    0.0008    0.0000   -0.0000   -0.0008    0.0022   -0.0015   -0.0000    0.0000
       32 FE2    3d2-      -0.6097    0.7810   -0.0000    0.0000    0.0000    0.0000    0.0000    0.0000   -0.0000    0.0000
       33 FE2    4d2-       0.0833   -0.1067    0.0000   -0.0000   -0.0000    0.0000   -0.0000   -0.0000    0.0000   -0.0000
       34 FE2    3d1-       0.0000    0.0000   -0.0000    0.9907    0.0099   -0.0000   -0.0000    0.0000    0.0004    0.0000
       35 FE2    4d1-      -0.0000   -0.0000    0.0000   -0.1357   -0.0014    0.0000   -0.0000   -0.0000   -0.0001   -0.0000
       36 FE2    3d0       -0.0000   -0.0000    0.9908    0.0000   -0.0000   -0.0214   -0.0048    0.0134   -0.0000    0.0000
       37 FE2    4d0        0.0000    0.0000   -0.1348   -0.0000    0.0000    0.0080    0.0092   -0.0269    0.0000    0.0000
       38 FE2    3d1+       0.0000   -0.0000    0.0000   -0.0099    0.9907   -0.0000    0.0000   -0.0000   -0.0000    0.0004
       39 FE2    4d1+      -0.0000    0.0000   -0.0000    0.0014   -0.1357    0.0000   -0.0000    0.0000    0.0000   -0.0001
       40 FE2    3d2+       0.7810    0.6097    0.0000   -0.0000   -0.0000   -0.0000    0.0000   -0.0000   -0.0000   -0.0000
       41 FE2    4d2+      -0.1067   -0.0833   -0.0000    0.0000    0.0000   -0.0000   -0.0000   -0.0000    0.0000   -0.0000
       42 FE2    4f3-       0.0000    0.0000    0.0000   -0.0000   -0.0000   -0.0000    0.0000   -0.0000    0.0000   -0.0000
       43 FE2    4f2-      -0.0001    0.0002    0.0000    0.0000    0.0000    0.0000    0.0000   -0.0000    0.0000   -0.0000
       44 FE2    4f1-       0.0000    0.0000   -0.0000    0.0002    0.0000    0.0000    0.0000   -0.0000   -0.0001   -0.0000
       45 FE2    4f0       -0.0000   -0.0000    0.0002    0.0000   -0.0000    0.0006    0.0005   -0.0017    0.0000   -0.0000
       46 FE2    4f1+       0.0000   -0.0000    0.0000   -0.0000    0.0002    0.0000    0.0000    0.0000    0.0000   -0.0001
       47 FE2    4f2+       0.0002    0.0001    0.0000   -0.0000   -0.0000   -0.0000    0.0000    0.0000    0.0000    0.0000
       48 FE2    4f3+       0.0000   -0.0000   -0.0000    0.0000   -0.0000    0.0000   -0.0000   -0.0000   -0.0000   -0.0000
 
          Orbital           21        22        23        24    
          Energy           -0.4523   -0.2629   -0.2629   -0.2392
          Occ. No.          0.0000    0.0000    0.0000    0.0000
 
        1 O1     1s        -0.0134    0.0000    0.0000   -0.0179
        2 O1     2s        -0.1719   -0.0000    0.0000   -0.1769
        3 O1     3s        -0.0476    0.0000   -0.0000   -0.0535
        4 O1     2px        0.0000    0.9501   -0.0002    0.0000
        5 O1     3px        0.0000    0.3016   -0.0001    0.0000
        6 O1     2py       -0.0000    0.0002    0.9501    0.0000
        7 O1     3py       -0.0000    0.0001    0.3016    0.0000
        8 O1     2pz        0.2842   -0.0000    0.0000    0.0584
        9 O1     3pz        0.0428   -0.0000    0.0000    0.0235
       10 O1     3d2-       0.0000    0.0000   -0.0000    0.0000
       11 O1     3d1-       0.0000   -0.0000   -0.0128   -0.0000
       12 O1     3d0       -0.0003    0.0000   -0.0000   -0.0035
       13 O1     3d1+      -0.0000   -0.0128    0.0000   -0.0000
       14 O1     3d2+      -0.0000   -0.0000   -0.0000   -0.0000
       15 FE2    1s         0.0001   -0.0000    0.0000    0.0001
       16 FE2    2s         0.0011   -0.0000    0.0000    0.0003
       17 FE2    3s         0.0066   -0.0000    0.0000   -0.0019
       18 FE2    4s         0.0855   -0.0000    0.0000    0.4036
       19 FE2    5s        -0.0326   -0.0000   -0.0000    0.9466
       20 FE2    2px       -0.0000   -0.0003    0.0000   -0.0000
       21 FE2    3px       -0.0000   -0.0068    0.0000   -0.0000
       22 FE2    4px       -0.0000   -0.1365    0.0000   -0.0000
       23 FE2    5px       -0.0000   -0.0010    0.0000   -0.0000
       24 FE2    2py        0.0000   -0.0000   -0.0003   -0.0000
       25 FE2    3py        0.0000   -0.0000   -0.0068   -0.0000
       26 FE2    4py        0.0000   -0.0000   -0.1365   -0.0000
       27 FE2    5py        0.0000   -0.0000   -0.0010   -0.0000
       28 FE2    2pz        0.0007   -0.0000    0.0000    0.0001
       29 FE2    3pz        0.0235   -0.0000    0.0000    0.0033
       30 FE2    4pz        1.0330   -0.0000    0.0000    0.0644
       31 FE2    5pz        0.0358   -0.0000    0.0000    0.0005
       32 FE2    3d2-      -0.0000   -0.0000    0.0000   -0.0000
       33 FE2    4d2-       0.0000   -0.0000   -0.0000   -0.0000
       34 FE2    3d1-       0.0000   -0.0000   -0.0014   -0.0000
       35 FE2    4d1-      -0.0000    0.0000    0.0558    0.0000
       36 FE2    3d0        0.0060   -0.0000    0.0000    0.0004
       37 FE2    4d0       -0.0200    0.0000   -0.0000   -0.0214
       38 FE2    3d1+      -0.0000   -0.0014    0.0000    0.0000
       39 FE2    4d1+       0.0000    0.0558   -0.0000    0.0000
       40 FE2    3d2+      -0.0000    0.0000   -0.0000    0.0000
       41 FE2    4d2+      -0.0000    0.0000   -0.0000   -0.0000
       42 FE2    4f3-      -0.0000    0.0000   -0.0000    0.0000
       43 FE2    4f2-      -0.0000    0.0000    0.0000   -0.0000
       44 FE2    4f1-      -0.0000    0.0000    0.0019    0.0000
       45 FE2    4f0       -0.0011    0.0000   -0.0000   -0.0006
       46 FE2    4f1+       0.0000    0.0019   -0.0000    0.0000
       47 FE2    4f2+       0.0000   -0.0000   -0.0000    0.0000
       48 FE2    4f3+       0.0000    0.0000   -0.0000    0.0000
--
 
 
  Input file to MOLDEN was generated!
 
 
++    Static properties:
      ------------------
 
 
      LoProp Charges per center
 

                   O1       FE2   
      Nuclear      8.0000  26.0000
      Electronic  -7.9633 -24.0367
 
      Total        0.0367   1.9633
--
 
 
      All orbitals with orbital energies smaller than  E(LUMO)+0.5 are printed
 
++    Molecular orbitals:
      -------------------
 
      Title: UHF orbitals (beta)

      Molecular orbitals for symmetry species 1: a  
 
          Orbital            1         2         3         4         5         6         7         8         9        10    
          Energy         -264.5902  -33.2993  -28.3673  -28.3673  -28.3672  -21.0955   -4.9499   -3.4017   -3.4017   -3.4008
          Occ. No.          1.0000    1.0000    1.0000    1.0000    1.0000    1.0000    1.0000    1.0000    1.0000    1.0000
 
        1 O1     1s         0.0000    0.0000   -0.0000   -0.0000    0.0000    1.0000   -0.0000    0.0000   -0.0000    0.0001
        2 O1     2s         0.0000    0.0000   -0.0000   -0.0000    0.0001    0.0018    0.0000    0.0000   -0.0000    0.0011
        3 O1     3s         0.0000    0.0000   -0.0000   -0.0000    0.0002   -0.0019    0.0000    0.0000   -0.0000    0.0011
        4 O1     2px        0.0000    0.0000    0.0000    0.0000    0.0000    0.0000   -0.0000   -0.0001    0.0002    0.0000
        5 O1     3px       -0.0000    0.0000    0.0000    0.0001    0.0000   -0.0000    0.0000   -0.0001    0.0005    0.0000
        6 O1     2py        0.0000   -0.0000    0.0000   -0.0000   -0.0000    0.0000    0.0000    0.0002    0.0001    0.0000
        7 O1     3py        0.0000   -0.0000    0.0001   -0.0000   -0.0000   -0.0000    0.0000    0.0005    0.0001    0.0000
        8 O1     2pz       -0.0000    0.0000    0.0000    0.0000   -0.0000   -0.0002   -0.0003   -0.0000   -0.0000   -0.0012
        9 O1     3pz       -0.0000    0.0000    0.0000    0.0000   -0.0001    0.0004   -0.0005   -0.0000    0.0000   -0.0009
       10 O1     3d2-       0.0000   -0.0000    0.0000    0.0000    0.0000   -0.0000    0.0000    0.0000    0.0000   -0.0000
       11 O1     3d1-       0.0000    0.0000   -0.0000    0.0000   -0.0000    0.0000   -0.0000   -0.0001   -0.0000    0.0000
       12 O1     3d0       -0.0000   -0.0000    0.0000    0.0000   -0.0000   -0.0004    0.0001    0.0000   -0.0000    0.0003
       13 O1     3d1+       0.0000   -0.0000   -0.0000   -0.0000   -0.0000   -0.0000    0.0000    0.0000   -0.0001   -0.0000
       14 O1     3d2+       0.0000    0.0000    0.0000    0.0000   -0.0000   -0.0000    0.0000   -0.0000   -0.0000   -0.0000
       15 FE2    1s         1.0000   -0.0000    0.0000    0.0000   -0.0000    0.0000    0.0000   -0.0000    0.0000   -0.0000
       16 FE2    2s         0.0000    1.0000    0.0000    0.0000   -0.0001    0.0000    0.0011   -0.0000   -0.0000   -0.0000
       17 FE2    3s        -0.0000   -0.0011    0.0000    0.0000   -0.0000    0.0000    1.0000   -0.0000    0.0000   -0.0012
       18 FE2    4s         0.0000    0.0002    0.0000    0.0000   -0.0001    0.0003   -0.0030   -0.0000    0.0000   -0.0004
       19 FE2    5s        -0.0000   -0.0002    0.0000    0.0000   -0.0000    0.0001    0.0032   -0.0000    0.0000   -0.0004
       20 FE2    2px        0.0000   -0.0000    0.1206    0.9927    0.0000    0.0000   -0.0000   -0.0009    0.0031    0.0000
       21 FE2    3px       -0.0000    0.0000   -0.0004   -0.0032   -0.0000    0.0000   -0.0000   -0.2646    0.9643    0.0000
       22 FE2    4px        0.0000   -0.0000    0.0001    0.0004    0.0000    0.0000    0.0000    0.0030   -0.0110   -0.0000
       23 FE2    5px        0.0000   -0.0000   -0.0001   -0.0011   -0.0000    0.0000    0.0000   -0.0014    0.0052    0.0000
       24 FE2    2py        0.0000   -0.0000    0.9927   -0.1206    0.0000   -0.0000   -0.0000    0.0031    0.0009   -0.0000
       25 FE2    3py        0.0000    0.0000   -0.0032    0.0004   -0.0000   -0.0000    0.0000    0.9643    0.2646   -0.0000
       26 FE2    4py       -0.0000    0.0000    0.0004   -0.0001    0.0000    0.0000   -0.0000   -0.0110   -0.0030    0.0000
       27 FE2    5py       -0.0000    0.0000   -0.0011    0.0001   -0.0000    0.0000   -0.0000    0.0052    0.0014   -0.0000
       28 FE2    2pz        0.0000    0.0001   -0.0000   -0.0000    1.0000    0.0000   -0.0000    0.0000   -0.0000    0.0032
       29 FE2    3pz       -0.0000    0.0000    0.0000    0.0000   -0.0032    0.0000    0.0011    0.0000   -0.0000    0.9999
       30 FE2    4pz       -0.0000    0.0000   -0.0000   -0.0000    0.0004    0.0003   -0.0002   -0.0000    0.0000   -0.0121
       31 FE2    5pz       -0.0000    0.0000    0.0000    0.0000   -0.0011    0.0001   -0.0001    0.0000   -0.0000    0.0053
       32 FE2    3d2-       0.0000   -0.0000    0.0000    0.0000   -0.0000    0.0000    0.0000   -0.0000    0.0000   -0.0000
       33 FE2    4d2-       0.0000    0.0000   -0.0000   -0.0000    0.0000   -0.0000    0.0000    0.0000    0.0000    0.0000
       34 FE2    3d1-       0.0000   -0.0000    0.0000   -0.0000    0.0000    0.0000   -0.0000    0.0006    0.0002   -0.0000
       35 FE2    4d1-      -0.0000    0.0000   -0.0000    0.0000   -0.0000    0.0000   -0.0000   -0.0001   -0.0000   -0.0000
       36 FE2    3d0       -0.0000    0.0000   -0.0000    0.0000   -0.0000    0.0001   -0.0003    0.0000   -0.0000    0.0003
       37 FE2    4d0       -0.0000    0.0000    0.0000    0.0000   -0.0001    0.0002   -0.0001   -0.0000    0.0000   -0.0003
       38 FE2    3d1+       0.0000   -0.0000    0.0000    0.0000    0.0000    0.0000   -0.0000   -0.0002    0.0006    0.0000
       39 FE2    4d1+       0.0000   -0.0000   -0.0000   -0.0000   -0.0000    0.0000    0.0000    0.0000   -0.0001   -0.0000
       40 FE2    3d2+       0.0000   -0.0000   -0.0000   -0.0000   -0.0000    0.0000   -0.0000   -0.0000   -0.0000    0.0000
       41 FE2    4d2+      -0.0000    0.0000   -0.0000    0.0000    0.0000   -0.0000    0.0000    0.0000    0.0000   -0.0000
       42 FE2    4f3-      -0.0000   -0.0000   -0.0000   -0.0000    0.0000    0.0000   -0.0000   -0.0000   -0.0000   -0.0000
       43 FE2    4f2-       0.0000    0.0000    0.0000   -0.0000   -0.0000   -0.0000   -0.0000    0.0000   -0.0000    0.0000
       44 FE2    4f1-      -0.0000    0.0000   -0.0000    0.0000   -0.0000    0.0000   -0.0000   -0.0001   -0.0000   -0.0000
       45 FE2    4f0       -0.0000   -0.0000    0.0000    0.0000   -0.0000    0.0000   -0.0001    0.0000    0.0000   -0.0001
       46 FE2    4f1+       0.0000   -0.0000   -0.0000   -0.0000   -0.0000    0.0000    0.0000    0.0000   -0.0001   -0.0000
       47 FE2    4f2+      -0.0000    0.0000   -0.0000    0.0000   -0.0000   -0.0000   -0.0000    0.0000    0.0000   -0.0000
       48 FE2    4f3+      -0.0000   -0.0000    0.0000    0.0000   -0.0000    0.0000    0.0000    0.0000    0.0000    0.0000
 
          Orbital           11        12        13        14        15        16        17        18        19        20    
          Energy           -1.7918   -1.0814   -1.0814   -0.9808   -0.5583   -0.5547   -0.5547   -0.5537   -0.5537   -0.5519
          Occ. No.          1.0000    1.0000    1.0000    1.0000    0.0000    0.0000    0.0000    0.0000    0.0000    0.0000
 
        1 O1     1s        -0.0019   -0.0000    0.0000    0.0013    0.0023   -0.0000    0.0000    0.0000   -0.0000   -0.0044
        2 O1     2s         0.9994   -0.0000    0.0000    0.0490    0.0354   -0.0000    0.0000    0.0000   -0.0000   -0.0568
        3 O1     3s        -0.0304    0.0000   -0.0000   -0.0205    0.0039   -0.0000    0.0000    0.0000   -0.0000   -0.0119
        4 O1     2px        0.0000    0.9976    0.0151    0.0000   -0.0000    0.0000    0.0000    0.0023   -0.0248    0.0000
        5 O1     3px       -0.0000   -0.0605   -0.0009   -0.0000    0.0000    0.0000    0.0000    0.0004   -0.0042   -0.0000
        6 O1     2py        0.0000   -0.0151    0.9976   -0.0000    0.0000    0.0000   -0.0000   -0.0248   -0.0023   -0.0000
        7 O1     3py       -0.0000    0.0009   -0.0605    0.0000    0.0000    0.0000   -0.0000   -0.0042   -0.0004   -0.0000
        8 O1     2pz       -0.0361   -0.0000    0.0000    0.9777   -0.1051    0.0000   -0.0000   -0.0000    0.0000    0.1486
        9 O1     3pz       -0.0093    0.0000   -0.0000   -0.0143   -0.0100    0.0000   -0.0000   -0.0000    0.0000    0.0116
       10 O1     3d2-      -0.0000    0.0000   -0.0000    0.0000   -0.0000    0.0001    0.0001    0.0000    0.0000    0.0000
       11 O1     3d1-       0.0000    0.0002   -0.0125    0.0000    0.0000    0.0000   -0.0000   -0.0009   -0.0001   -0.0000
       12 O1     3d0       -0.0185    0.0000   -0.0000   -0.0183   -0.0005    0.0000   -0.0000   -0.0000    0.0000    0.0018
       13 O1     3d1+      -0.0000   -0.0125   -0.0002   -0.0000    0.0000    0.0000    0.0000    0.0001   -0.0009   -0.0000
       14 O1     3d2+      -0.0000   -0.0000   -0.0000   -0.0000   -0.0000   -0.0001    0.0001    0.0000   -0.0000    0.0000
       15 FE2    1s        -0.0000   -0.0000    0.0000    0.0002   -0.0000    0.0000   -0.0000   -0.0000    0.0000    0.0001
       16 FE2    2s        -0.0003   -0.0000    0.0000    0.0015   -0.0001    0.0000   -0.0000   -0.0000    0.0000    0.0003
       17 FE2    3s        -0.0017   -0.0000    0.0000    0.0079   -0.0047    0.0000   -0.0000   -0.0000    0.0000    0.0039
       18 FE2    4s        -0.0012    0.0000   -0.0000   -0.0628   -0.8870    0.0000    0.0000   -0.0000    0.0000    0.4181
       19 FE2    5s        -0.0039   -0.0000    0.0000    0.0186    0.2191   -0.0000   -0.0000    0.0000   -0.0000   -0.1014
       20 FE2    2px       -0.0000   -0.0000   -0.0000   -0.0000    0.0000   -0.0000   -0.0000    0.0000   -0.0000   -0.0000
       21 FE2    3px       -0.0000   -0.0009   -0.0000    0.0000    0.0000    0.0000   -0.0000    0.0000   -0.0005    0.0000
       22 FE2    4px        0.0000    0.0030    0.0000    0.0000    0.0000   -0.0000   -0.0000   -0.0009    0.0093   -0.0000
       23 FE2    5px        0.0000   -0.0002   -0.0000   -0.0000    0.0000   -0.0000   -0.0000   -0.0000    0.0005   -0.0000
       24 FE2    2py        0.0000    0.0000   -0.0000   -0.0000    0.0000   -0.0000   -0.0000   -0.0000   -0.0000   -0.0000
       25 FE2    3py       -0.0000    0.0000   -0.0009    0.0000   -0.0000   -0.0000    0.0000   -0.0005   -0.0000   -0.0000
       26 FE2    4py        0.0000   -0.0000    0.0030   -0.0000    0.0000   -0.0000    0.0000    0.0093    0.0009   -0.0000
       27 FE2    5py        0.0000    0.0000   -0.0002   -0.0000    0.0000   -0.0000    0.0000    0.0005    0.0000   -0.0000
       28 FE2    2pz       -0.0001   -0.0000    0.0000    0.0003   -0.0001    0.0000    0.0000   -0.0000    0.0000    0.0001
       29 FE2    3pz       -0.0021   -0.0000    0.0000    0.0071   -0.0012    0.0000   -0.0000   -0.0000    0.0000    0.0012
       30 FE2    4pz       -0.0006    0.0000   -0.0000   -0.0525    0.0011    0.0000    0.0000   -0.0000   -0.0000   -0.0048
       31 FE2    5pz       -0.0013    0.0000   -0.0000   -0.0029    0.0002    0.0000    0.0000   -0.0000   -0.0000   -0.0007
       32 FE2    3d2-      -0.0000   -0.0000   -0.0000   -0.0000    0.0000    0.7702    0.6247   -0.0000    0.0000    0.0000
       33 FE2    4d2-       0.0000   -0.0000   -0.0000   -0.0000    0.0000    0.0999    0.0810   -0.0000    0.0000    0.0000
       34 FE2    3d1-       0.0000   -0.0001    0.0060   -0.0000    0.0000   -0.0000    0.0000    0.9878    0.0924    0.0000
       35 FE2    4d1-       0.0000   -0.0000    0.0024   -0.0000    0.0000   -0.0000    0.0000    0.1280    0.0120    0.0000
       36 FE2    3d0        0.0023    0.0000   -0.0000   -0.0484    0.4159    0.0000   -0.0000   -0.0000    0.0000    0.9019
       37 FE2    4d0        0.0005    0.0000   -0.0000   -0.0181    0.0565    0.0000   -0.0000   -0.0000    0.0000    0.1133
       38 FE2    3d1+       0.0000    0.0060    0.0001    0.0000   -0.0000   -0.0000   -0.0000   -0.0924    0.9878   -0.0000
       39 FE2    4d1+       0.0000    0.0024    0.0000    0.0000   -0.0000   -0.0000   -0.0000   -0.0120    0.1280   -0.0000
       40 FE2    3d2+       0.0000   -0.0000    0.0000    0.0000    0.0000   -0.6247    0.7702   -0.0000   -0.0000    0.0000
       41 FE2    4d2+       0.0000    0.0000    0.0000    0.0000    0.0000   -0.0810    0.0999   -0.0000   -0.0000    0.0000
       42 FE2    4f3-      -0.0000   -0.0000   -0.0000   -0.0000   -0.0000   -0.0000    0.0000   -0.0000   -0.0000    0.0000
       43 FE2    4f2-       0.0000   -0.0000    0.0000   -0.0000    0.0000    0.0003    0.0003   -0.0000    0.0000    0.0000
       44 FE2    4f1-       0.0000   -0.0000    0.0003   -0.0000    0.0000   -0.0000    0.0000    0.0004    0.0000    0.0000
       45 FE2    4f0        0.0002    0.0000   -0.0000   -0.0014    0.0004    0.0000   -0.0000   -0.0000   -0.0000    0.0002
       46 FE2    4f1+       0.0000    0.0003    0.0000    0.0000    0.0000   -0.0000   -0.0000   -0.0000    0.0004   -0.0000
       47 FE2    4f2+      -0.0000   -0.0000    0.0000    0.0000   -0.0000   -0.0003    0.0003   -0.0000   -0.0000    0.0000
       48 FE2    4f3+       0.0000    0.0000   -0.0000   -0.0000   -0.0000   -0.0000   -0.0000    0.0000   -0.0000   -0.0000
 
          Orbital           21        22        23        24    
          Energy           -0.3813   -0.3813   -0.3655   -0.2183
          Occ. No.          0.0000    0.0000    0.0000    0.0000
 
        1 O1     1s         0.0000    0.0000   -0.0133   -0.0177
        2 O1     2s         0.0000    0.0000   -0.1500   -0.1645
        3 O1     3s         0.0000   -0.0000   -0.0235   -0.0409
        4 O1     2px        0.0014   -0.0464    0.0000   -0.0000
        5 O1     3px       -0.0001    0.0020   -0.0000   -0.0000
        6 O1     2py       -0.0464   -0.0014   -0.0000   -0.0000
        7 O1     3py        0.0020    0.0001   -0.0000   -0.0000
        8 O1     2pz       -0.0000   -0.0000    0.1981    0.0411
        9 O1     3pz        0.0000   -0.0000    0.0135    0.0245
       10 O1     3d2-       0.0000   -0.0000    0.0000    0.0000
       11 O1     3d1-      -0.0032   -0.0001   -0.0000   -0.0000
       12 O1     3d0       -0.0000   -0.0000    0.0052   -0.0029
       13 O1     3d1+       0.0001   -0.0032   -0.0000   -0.0000
       14 O1     3d2+       0.0000    0.0000    0.0000    0.0000
       15 FE2    1s        -0.0000    0.0000    0.0001    0.0001
       16 FE2    2s        -0.0000    0.0000    0.0005    0.0006
       17 FE2    3s        -0.0000   -0.0000    0.0031    0.0000
       18 FE2    4s        -0.0000    0.0000    0.0300    0.2743
       19 FE2    5s        -0.0000   -0.0000   -0.0304    0.9863
       20 FE2    2px        0.0000   -0.0003   -0.0000   -0.0000
       21 FE2    3px       -0.0003    0.0110    0.0000    0.0000
       22 FE2    4px       -0.0309    0.9976    0.0000    0.0000
       23 FE2    5px       -0.0023    0.0740    0.0000   -0.0000
       24 FE2    2py       -0.0003   -0.0000   -0.0000   -0.0000
       25 FE2    3py        0.0110    0.0003    0.0000    0.0000
       26 FE2    4py        0.9976    0.0309    0.0000    0.0000
       27 FE2    5py        0.0740    0.0023    0.0000    0.0000
       28 FE2    2pz        0.0000    0.0000   -0.0002    0.0001
       29 FE2    3pz       -0.0000   -0.0000    0.0137    0.0028
       30 FE2    4pz       -0.0000   -0.0000    1.0271    0.0772
       31 FE2    5pz       -0.0000   -0.0000    0.0744    0.0053
       32 FE2    3d2-      -0.0000    0.0000   -0.0000   -0.0000
       33 FE2    4d2-      -0.0000   -0.0000   -0.0000   -0.0000
       34 FE2    3d1-      -0.0078   -0.0002    0.0000    0.0000
       35 FE2    4d1-       0.0020    0.0001   -0.0000   -0.0000
       36 FE2    3d0        0.0000    0.0000    0.0203    0.0144
       37 FE2    4d0        0.0000    0.0000   -0.0058   -0.0083
       38 FE2    3d1+       0.0002   -0.0078   -0.0000    0.0000
       39 FE2    4d1+      -0.0001    0.0020   -0.0000    0.0000
       40 FE2    3d2+      -0.0000   -0.0000    0.0000    0.0000
       41 FE2    4d2+       0.0000   -0.0000   -0.0000    0.0000
       42 FE2    4f3-       0.0000    0.0000   -0.0000    0.0000
       43 FE2    4f2-       0.0000   -0.0000   -0.0000   -0.0000
       44 FE2    4f1-      -0.0001   -0.0000   -0.0000   -0.0000
       45 FE2    4f0        0.0000   -0.0000   -0.0007   -0.0004
       46 FE2    4f1+       0.0000   -0.0001    0.0000   -0.0000
       47 FE2    4f2+       0.0000    0.0000   -0.0000    0.0000
       48 FE2    4f3+      -0.0000   -0.0000    0.0000    0.0000
--
 
 
++    Molecular charges:
      ------------------
 
      Mulliken charges per centre and basis function type
      ---------------------------------------------------
 
                            O1                      FE2   
                     alpha        beta       alpha        beta
      1s           1.0000      1.0000      1.0000      1.0000
      2s           0.9981      0.9998      1.0000      1.0000
      2px          0.0000      0.9959      1.0000      1.0000
      2pz          0.9585      0.9733      1.0000      1.0000
      2py          0.0000      0.9959      1.0000      1.0000
      3s           0.0009      0.0019      0.9999      0.9999
      3px          0.0000      0.0036      0.9993      0.9998
      3pz         -0.0043     -0.0002      0.9992      0.9998
      3py          0.0000      0.0036      0.9993      0.9998
      4s           0.0000      0.0000      0.8644      0.0096
      3d2+         0.0000      0.0000      0.9817      0.0000
      3d1+        -0.0000      0.0002      0.9816      0.0001
      3d0          0.0013      0.0008      0.9815      0.0037
      3d1-        -0.0000      0.0002      0.9816      0.0001
      3d2-         0.0000      0.0000      0.9817      0.0000
      4px          0.0000      0.0000      0.0004      0.0003
      4pz          0.0000      0.0000      0.0382      0.0094
      4py          0.0000      0.0000      0.0004      0.0003
      5s           0.0000      0.0000      0.1391     -0.0001
      4d2+         0.0000      0.0000      0.0183      0.0000
      4d1+         0.0000      0.0000      0.0184      0.0001
      4d0          0.0000      0.0000      0.0227      0.0021
      4d1-         0.0000      0.0000      0.0184      0.0001
      4d2-         0.0000      0.0000      0.0183      0.0000
      5px          0.0000      0.0000      0.0003      0.0000
      5pz          0.0000      0.0000      0.0003      0.0000
      5py          0.0000      0.0000      0.0003      0.0000
      4f3+         0.0000      0.0000      0.0000      0.0000
      4f2+         0.0000      0.0000      0.0000      0.0000
      4f1+         0.0000      0.0000      0.0000      0.0000
      4f0          0.0000      0.0000      0.0000      0.0000
      4f1-         0.0000      0.0000      0.0000      0.0000
      4f2-         0.0000      0.0000      0.0000      0.0000
      4f3-         0.0000      0.0000      0.0000      0.0000
      Total        2.9546      4.9748     15.0454      9.0252
      Total              7.9294                 24.0706
 
      Charge            0.0706                  1.9294
 
      Total electronic charge=   32.000000
 
      Total            charge=    2.000000
--
 
 
  Input file to MOLDEN was generated!
 
 
++    Static properties:
      ------------------
 
 
      LoProp Charges per center
 

                   O1       FE2   
      Nuclear      8.0000  26.0000
      Electronic  -7.9633 -24.0367
 
      Total        0.0367   1.9633
--
 
 
++    Natural Bond Order analysis
      ---------------------------
      Based on LoProp computed density
      -------------------------------------------------------------------------------------
      Atom A       Atom B       Bond Order
      -------------------------------------------------------------------------------------
      NBO located     19.999 core electrons.
      NBO located      3.934 lone pair electrons.
      NBO located      1.018 non-bonded electrons on atom FE2       
      NBO located      1.000 non-bonded electrons on atom FE2       
      NBO located      1.000 non-bonded electrons on atom FE2       
      NBO located      1.000 non-bonded electrons on atom FE2       
      NBO located      1.000 non-bonded electrons on atom FE2       
      NBO located      1.000 non-bonded electrons on atom FE2       
      The remaining    2.048 electrons are to be considered as diffuse
--
 
 
++    Molecular orbitals:
      -------------------
 
      Title: Natural orbitals

      Molecular orbitals for symmetry species 1: a  
 
          Orbital            1         2         3         4         5         6         7         8         9        10    
          Energy         -264.5941  -33.0379  -27.1039  -27.6840  -27.6831  -21.5087   -5.5592   -4.5158   -4.4527   -4.4520
          Occ. No.          2.0000    2.0000    2.0000    2.0000    2.0000    2.0000    2.0000    1.9999    1.9999    1.9999
 
        1 O1     1s         0.0000    0.0076    0.2703   -0.0000    0.0000   -0.9618   -0.0262    0.0001    0.0000    0.0000
        2 O1     2s         0.0000   -0.0004   -0.0094    0.0000   -0.0000    0.0325   -0.0041   -0.0054   -0.0000   -0.0000
        3 O1     3s         0.0000   -0.0000   -0.0003    0.0000   -0.0000    0.0002    0.0001    0.0021    0.0000    0.0000
        4 O1     2px        0.0000    0.0000    0.0000   -0.0000    0.0000    0.0000   -0.0000   -0.0000    0.0001    0.0000
        5 O1     3px       -0.0000   -0.0000    0.0000   -0.0000    0.0000    0.0000    0.0000    0.0000    0.0002    0.0001
        6 O1     2py        0.0000   -0.0000   -0.0000   -0.0000   -0.0000   -0.0000    0.0000    0.0000   -0.0000    0.0001
        7 O1     3py        0.0000   -0.0000   -0.0000   -0.0000   -0.0000   -0.0000    0.0000    0.0000   -0.0001    0.0002
        8 O1     2pz       -0.0000    0.0001    0.0030    0.0000   -0.0000    0.0050   -0.0017   -0.0656   -0.0000   -0.0000
        9 O1     3pz       -0.0000    0.0001    0.0004   -0.0000    0.0000   -0.0004   -0.0008   -0.0019   -0.0000   -0.0000
       10 O1     3d2-       0.0000   -0.0000    0.0000    0.0000    0.0000    0.0000    0.0000   -0.0000    0.0000    0.0000
       11 O1     3d1-       0.0000    0.0000   -0.0000    0.0000    0.0000    0.0000   -0.0000   -0.0000    0.0000   -0.0001
       12 O1     3d0       -0.0000   -0.0000   -0.0001   -0.0000    0.0000   -0.0002    0.0002    0.0014    0.0000    0.0000
       13 O1     3d1+       0.0000    0.0000   -0.0000    0.0000   -0.0000   -0.0000    0.0000    0.0000   -0.0001   -0.0000
       14 O1     3d2+       0.0000    0.0000   -0.0000    0.0000   -0.0000    0.0000    0.0000   -0.0000   -0.0000   -0.0000
       15 FE2    1s         1.0000   -0.0000    0.0000   -0.0000    0.0000    0.0000    0.0000   -0.0000    0.0000   -0.0000
       16 FE2    2s         0.0000    0.9939    0.0010   -0.0000    0.0000    0.0052    0.1102    0.0017    0.0000   -0.0000
       17 FE2    3s        -0.0000   -0.1100    0.0287   -0.0000    0.0000   -0.0197    0.9932    0.0035    0.0000    0.0000
       18 FE2    4s         0.0000    0.0005   -0.0001   -0.0000    0.0000   -0.0004   -0.0024    0.0032    0.0000    0.0000
       19 FE2    5s        -0.0000   -0.0006    0.0003    0.0000    0.0000   -0.0000    0.0045   -0.0015   -0.0000   -0.0000
       20 FE2    2px        0.0000    0.0000   -0.0000    0.6945   -0.6976   -0.0000    0.0000    0.0000    0.1611    0.0712
       21 FE2    3px       -0.0000   -0.0000    0.0000   -0.1242    0.1249    0.0000   -0.0000   -0.0000    0.9000    0.3982
       22 FE2    4px        0.0000    0.0000   -0.0000    0.0019   -0.0019   -0.0000    0.0000    0.0000   -0.0137   -0.0061
       23 FE2    5px       -0.0000   -0.0000    0.0000   -0.0013    0.0013    0.0000   -0.0000   -0.0000    0.0106    0.0047
       24 FE2    2py       -0.0000   -0.0000   -0.0000    0.6976    0.6945    0.0000   -0.0000    0.0000   -0.0713    0.1611
       25 FE2    3py        0.0000    0.0000    0.0000   -0.1248   -0.1243   -0.0000    0.0000    0.0000   -0.3981    0.9000
       26 FE2    4py       -0.0000   -0.0000   -0.0000    0.0019    0.0019    0.0000   -0.0000   -0.0000    0.0061   -0.0137
       27 FE2    5py       -0.0000    0.0000    0.0000   -0.0013   -0.0013   -0.0000    0.0000    0.0000   -0.0047    0.0106
       28 FE2    2pz       -0.0000   -0.0001    0.9457    0.0000   -0.0000    0.2665   -0.0228    0.1847    0.0000    0.0000
       29 FE2    3pz       -0.0000   -0.0013   -0.1781   -0.0000    0.0000   -0.0495   -0.0003    0.9798    0.0000   -0.0000
       30 FE2    4pz       -0.0000    0.0000    0.0025    0.0000   -0.0000    0.0004   -0.0003   -0.0099   -0.0000    0.0000
       31 FE2    5pz       -0.0000    0.0000   -0.0019   -0.0000    0.0000   -0.0006   -0.0002    0.0117    0.0000   -0.0000
       32 FE2    3d2-       0.0000   -0.0000   -0.0000    0.0000    0.0000   -0.0000    0.0000    0.0000    0.0000    0.0000
       33 FE2    4d2-       0.0000    0.0000   -0.0000   -0.0000   -0.0000    0.0000    0.0000    0.0000   -0.0000    0.0000
       34 FE2    3d1-       0.0000    0.0000    0.0000   -0.0001   -0.0001   -0.0000   -0.0000    0.0000   -0.0003    0.0006
       35 FE2    4d1-      -0.0000    0.0000   -0.0000    0.0000    0.0000    0.0000   -0.0000    0.0000    0.0001   -0.0001
       36 FE2    3d0       -0.0000    0.0000   -0.0002   -0.0000    0.0000   -0.0002   -0.0002    0.0034    0.0000    0.0000
       37 FE2    4d0       -0.0000    0.0000    0.0000   -0.0000    0.0000   -0.0000   -0.0001    0.0008    0.0000    0.0000
       38 FE2    3d1+       0.0000   -0.0000    0.0000   -0.0001    0.0001    0.0000   -0.0000   -0.0000    0.0006    0.0003
       39 FE2    4d1+       0.0000    0.0000   -0.0000    0.0000   -0.0000   -0.0000    0.0000    0.0000   -0.0001   -0.0001
       40 FE2    3d2+       0.0000   -0.0000   -0.0000    0.0000    0.0000    0.0000   -0.0000    0.0000    0.0000   -0.0000
       41 FE2    4d2+      -0.0000   -0.0000    0.0000   -0.0000   -0.0000    0.0000    0.0000   -0.0000   -0.0000    0.0000
       42 FE2    4f3-      -0.0000   -0.0000    0.0000    0.0000    0.0000   -0.0000   -0.0000   -0.0000    0.0000   -0.0000
       43 FE2    4f2-       0.0000    0.0000   -0.0000    0.0000   -0.0000   -0.0000   -0.0000    0.0000   -0.0000   -0.0000
       44 FE2    4f1-      -0.0000    0.0000   -0.0000    0.0000    0.0000    0.0000   -0.0000   -0.0000    0.0000   -0.0001
       45 FE2    4f0       -0.0000    0.0000    0.0000    0.0000   -0.0000    0.0000   -0.0000   -0.0000   -0.0000    0.0000
       46 FE2    4f1+       0.0000    0.0000   -0.0000    0.0000   -0.0000   -0.0000    0.0000    0.0000   -0.0001   -0.0000
       47 FE2    4f2+      -0.0000    0.0000   -0.0000   -0.0000   -0.0000    0.0000   -0.0000   -0.0000   -0.0000    0.0000
       48 FE2    4f3+      -0.0000   -0.0000   -0.0000   -0.0000   -0.0000   -0.0000    0.0000    0.0000    0.0000    0.0000
 
          Orbital           11        12        13        14        15        16        17        18        19        20    
          Energy           -1.5404   -1.0464   -0.8525   -0.8525   -1.0659   -1.0659   -1.0635   -0.7404   -0.8433   -0.8433
          Occ. No.          1.9976    1.9950    1.0089    1.0089    1.0000    1.0000    1.0000    1.0000    0.9911    0.9911
 
        1 O1     1s         0.0335   -0.0062    0.0000   -0.0000    0.0000    0.0000   -0.0001    0.0011    0.0000   -0.0000
        2 O1     2s         0.9455   -0.3257    0.0000   -0.0000    0.0000    0.0000    0.0042    0.0284    0.0000    0.0000
        3 O1     3s        -0.0121   -0.0153    0.0000    0.0000    0.0000   -0.0000    0.0025    0.0050    0.0000   -0.0000
        4 O1     2px        0.0000    0.0000   -0.0070    0.7027   -0.0000    0.0000   -0.0000   -0.0000    0.0072   -0.7083
        5 O1     3px       -0.0000   -0.0000    0.0004   -0.0426    0.0000   -0.0000    0.0000   -0.0000   -0.0004    0.0430
        6 O1     2py       -0.0000   -0.0000    0.7027    0.0070   -0.0000    0.0000    0.0000    0.0000   -0.7083   -0.0072
        7 O1     3py        0.0000   -0.0000   -0.0426   -0.0004    0.0000   -0.0000    0.0000    0.0000    0.0430    0.0004
        8 O1     2pz        0.3328    0.9097   -0.0000    0.0000   -0.0000    0.0000   -0.0583   -0.1435   -0.0000    0.0000
        9 O1     3pz       -0.0068    0.0156   -0.0000    0.0000   -0.0000    0.0000   -0.0079   -0.0310   -0.0000    0.0000
       10 O1     3d2-       0.0000    0.0000   -0.0000    0.0000   -0.0000    0.0000    0.0000    0.0000    0.0000   -0.0000
       11 O1     3d1-      -0.0000    0.0000   -0.0087   -0.0001    0.0000   -0.0000   -0.0000   -0.0000    0.0091    0.0001
       12 O1     3d0        0.0002   -0.0177    0.0000    0.0000    0.0000   -0.0000    0.0019    0.0029    0.0000   -0.0000
       13 O1     3d1+      -0.0000   -0.0000    0.0001   -0.0087    0.0000   -0.0000    0.0000    0.0000   -0.0001    0.0091
       14 O1     3d2+       0.0000   -0.0000   -0.0000   -0.0000    0.0000    0.0000    0.0000   -0.0000    0.0000    0.0000
       15 FE2    1s         0.0000    0.0002   -0.0000    0.0000   -0.0000    0.0000   -0.0000   -0.0001   -0.0000    0.0000
       16 FE2    2s         0.0010    0.0017   -0.0000    0.0000   -0.0000    0.0000   -0.0002   -0.0004   -0.0000    0.0000
       17 FE2    3s         0.0067    0.0095   -0.0000    0.0000   -0.0000   -0.0000   -0.0013   -0.0071   -0.0000    0.0000
       18 FE2    4s        -0.0260   -0.0520   -0.0000    0.0000   -0.0000   -0.0000    0.0015   -0.9397   -0.0000    0.0000
       19 FE2    5s         0.0051    0.0186    0.0000   -0.0000    0.0000    0.0000   -0.0017    0.3701    0.0000   -0.0000
       20 FE2    2px       -0.0000   -0.0000    0.0000   -0.0000   -0.0000   -0.0000   -0.0000    0.0000   -0.0000    0.0000
       21 FE2    3px        0.0000   -0.0000    0.0000   -0.0010    0.0000   -0.0000   -0.0000   -0.0000   -0.0000    0.0001
       22 FE2    4px        0.0000    0.0000   -0.0000    0.0017    0.0000   -0.0000   -0.0000    0.0000    0.0000   -0.0025
       23 FE2    5px        0.0000   -0.0000    0.0000   -0.0003    0.0000   -0.0000   -0.0000    0.0000   -0.0000    0.0001
       24 FE2    2py       -0.0000    0.0000   -0.0000   -0.0000    0.0000   -0.0000    0.0000    0.0000    0.0000    0.0000
       25 FE2    3py        0.0000    0.0000   -0.0010   -0.0000    0.0000    0.0000    0.0000    0.0000    0.0001    0.0000
       26 FE2    4py       -0.0000   -0.0000    0.0017    0.0000    0.0000    0.0000    0.0000    0.0000   -0.0025   -0.0000
       27 FE2    5py       -0.0000   -0.0000   -0.0003   -0.0000    0.0000   -0.0000    0.0000    0.0000    0.0001    0.0000
       28 FE2    2pz        0.0037    0.0077   -0.0000   -0.0000   -0.0000    0.0000   -0.0000   -0.0001   -0.0000    0.0000
       29 FE2    3pz        0.0275    0.0677   -0.0000    0.0000   -0.0000   -0.0000   -0.0003   -0.0015   -0.0000    0.0000
       30 FE2    4pz       -0.0290   -0.0831    0.0000   -0.0000    0.0000    0.0000    0.0067    0.0541    0.0000   -0.0000
       31 FE2    5pz       -0.0017   -0.0013   -0.0000    0.0000   -0.0000    0.0000   -0.0007   -0.0011   -0.0000    0.0000
       32 FE2    3d2-      -0.0000   -0.0000   -0.0000   -0.0000   -0.6088    0.7817    0.0000    0.0000   -0.0000   -0.0000
       33 FE2    4d2-      -0.0000   -0.0000    0.0000    0.0000    0.0832   -0.1068   -0.0000   -0.0000    0.0000    0.0000
       34 FE2    3d1-      -0.0000   -0.0000    0.7017    0.0070   -0.0000   -0.0000   -0.0000   -0.0000    0.6994    0.0071
       35 FE2    4d1-      -0.0000   -0.0000   -0.0939   -0.0009    0.0000    0.0000    0.0000    0.0000   -0.0981   -0.0010
       36 FE2    3d0       -0.0163   -0.0452   -0.0000    0.0000    0.0000    0.0000   -0.9900   -0.0031   -0.0000    0.0000
       37 FE2    4d0       -0.0047   -0.0183    0.0000   -0.0000   -0.0000   -0.0000    0.1364    0.0055    0.0000   -0.0000
       38 FE2    3d1+       0.0000    0.0000   -0.0070    0.7017    0.0000    0.0000    0.0000    0.0000   -0.0071    0.6994
       39 FE2    4d1+       0.0000    0.0000    0.0009   -0.0939   -0.0000   -0.0000   -0.0000   -0.0000    0.0010   -0.0981
       40 FE2    3d2+       0.0000    0.0000    0.0000   -0.0000    0.7817    0.6088    0.0000   -0.0000    0.0000   -0.0000
       41 FE2    4d2+       0.0000    0.0000   -0.0000    0.0000   -0.1068   -0.0832   -0.0000    0.0000   -0.0000    0.0000
       42 FE2    4f3-      -0.0000   -0.0000   -0.0000   -0.0000    0.0000    0.0000   -0.0000   -0.0000   -0.0000   -0.0000
       43 FE2    4f2-      -0.0000   -0.0000    0.0000   -0.0000   -0.0001    0.0002    0.0000    0.0000    0.0000    0.0000
       44 FE2    4f1-      -0.0000   -0.0000    0.0004    0.0000    0.0000    0.0000   -0.0000   -0.0000   -0.0001   -0.0000
       45 FE2    4f0       -0.0002   -0.0016    0.0000   -0.0000    0.0000    0.0000   -0.0001    0.0004    0.0000   -0.0000
       46 FE2    4f1+       0.0000    0.0000   -0.0000    0.0004    0.0000   -0.0000    0.0000    0.0000    0.0000   -0.0001
       47 FE2    4f2+      -0.0000    0.0000    0.0000   -0.0000    0.0002    0.0001    0.0000   -0.0000   -0.0000    0.0000
       48 FE2    4f3+       0.0000   -0.0000    0.0000    0.0000    0.0000   -0.0000    0.0000    0.0000    0.0000   -0.0000
 
          Orbital           21        22        23        24        25        26        27        28        29        30    
          Energy           -0.1705    1.1336    0.9748    0.9748    1.2784   -0.1944    0.9504    0.0186    0.0186    0.7074
          Occ. No.          0.0050    0.0024    0.0001    0.0001    0.0001    0.0000    0.0000    0.0000    0.0000    0.0000
 
        1 O1     1s        -0.0076    0.0020    0.0000   -0.0000    0.0091    0.0126   -0.0279    0.0000    0.0000   -0.0132
        2 O1     2s        -0.0985    0.0281    0.0000   -0.0000    0.0851    0.1155   -0.2985    0.0000    0.0000   -0.1375
        3 O1     3s         0.1556    0.6814    0.0000    0.0000    0.0648    0.1158   -0.8671    0.0000   -0.0000    0.2727
        4 O1     2px        0.0000   -0.0000    0.0014   -0.0089    0.0000   -0.0000    0.0000    0.0032   -0.0765   -0.0000
        5 O1     3px       -0.0000   -0.0000    0.0050   -0.0309    0.0000    0.0000   -0.0000    0.0097   -0.2324   -0.0000
        6 O1     2py       -0.0000    0.0000   -0.0089   -0.0014   -0.0000    0.0000   -0.0000   -0.0765   -0.0032   -0.0000
        7 O1     3py        0.0000   -0.0000   -0.0309   -0.0050   -0.0000    0.0000   -0.0000   -0.2324   -0.0097   -0.0000
        8 O1     2pz        0.1808   -0.0138    0.0000    0.0000   -0.0050    0.0039    0.2355   -0.0000   -0.0000    0.1307
        9 O1     3pz       -0.5059    0.2072    0.0000   -0.0000    0.2807    0.2260    0.7298   -0.0000   -0.0000    0.6783
       10 O1     3d2-       0.0000   -0.0000    0.0000   -0.0000   -0.0000   -0.0000    0.0000    0.0000    0.0000   -0.0000
       11 O1     3d1-      -0.0000   -0.0000    0.0010    0.0002   -0.0000   -0.0000   -0.0000    0.0426    0.0018    0.0000
       12 O1     3d0        0.1549    0.6949   -0.0000   -0.0000    0.0177    0.0116    0.2946    0.0000    0.0000   -0.5501
       13 O1     3d1+      -0.0000    0.0000   -0.0002    0.0010    0.0000    0.0000    0.0000   -0.0018    0.0426   -0.0000
       14 O1     3d2+       0.0000    0.0000    0.0000   -0.0000    0.0000   -0.0000    0.0000    0.0000    0.0000   -0.0000
       15 FE2    1s        -0.0009    0.0001    0.0000   -0.0000    0.0005    0.0004    0.0015   -0.0000   -0.0000    0.0012
       16 FE2    2s        -0.0062    0.0009    0.0000   -0.0000    0.0033    0.0026    0.0106   -0.0000   -0.0000    0.0084
       17 FE2    3s        -0.0318    0.0024    0.0000   -0.0000    0.0166    0.0161    0.0551   -0.0000   -0.0000    0.0428
       18 FE2    4s        -0.1124   -0.0386   -0.0000   -0.0000    0.0742   -0.3076    0.4628   -0.0000   -0.0000    0.2963
       19 FE2    5s         0.0015    0.0486    0.0000    0.0000   -0.0186   -0.9195    0.2633    0.0000    0.0000    0.1374
       20 FE2    2px       -0.0000    0.0000    0.0000   -0.0002    0.0000    0.0000    0.0000   -0.0000    0.0001    0.0000
       21 FE2    3px        0.0000    0.0000    0.0028   -0.0174   -0.0000    0.0000    0.0000   -0.0004    0.0095    0.0000
       22 FE2    4px       -0.0000    0.0000    0.0815   -0.5022   -0.0000    0.0000    0.0000   -0.0370    0.8815    0.0000
       23 FE2    5px        0.0000    0.0000   -0.1378    0.8497    0.0000    0.0000    0.0000   -0.0221    0.5275    0.0000
       24 FE2    2py       -0.0000    0.0000   -0.0002   -0.0000    0.0000   -0.0000   -0.0000    0.0001    0.0000    0.0000
       25 FE2    3py       -0.0000   -0.0000   -0.0174   -0.0028    0.0000   -0.0000    0.0000    0.0095    0.0004    0.0000
       26 FE2    4py        0.0000   -0.0000   -0.5022   -0.0815    0.0000    0.0000    0.0000    0.8815    0.0370    0.0000
       27 FE2    5py       -0.0000    0.0000    0.8497    0.1378   -0.0000    0.0000    0.0000    0.5275    0.0221    0.0000
       28 FE2    2pz       -0.0009   -0.0001    0.0000   -0.0000    0.0006    0.0004    0.0017   -0.0000   -0.0000    0.0013
       29 FE2    3pz       -0.0079   -0.0068    0.0000   -0.0000    0.0238    0.0079    0.0406   -0.0000   -0.0000    0.0302
       30 FE2    4pz        0.6779   -0.2408    0.0000   -0.0000    0.2266    0.1519    0.6887   -0.0000   -0.0000    0.5334
       31 FE2    5pz       -0.0105    0.0136   -0.0000    0.0000   -0.9448    0.0768    0.3649   -0.0000   -0.0000    0.2576
       32 FE2    3d2-      -0.0000    0.0000    0.0000   -0.0000    0.0000    0.0000   -0.0000   -0.0000    0.0000    0.0000
       33 FE2    4d2-      -0.0000    0.0000    0.0000   -0.0000    0.0000    0.0000   -0.0000   -0.0000    0.0000    0.0000
       34 FE2    3d1-      -0.0000   -0.0000    0.0001    0.0000    0.0000   -0.0000    0.0000    0.0185    0.0008    0.0000
       35 FE2    4d1-       0.0000    0.0000   -0.0017   -0.0003   -0.0000    0.0000    0.0000    0.1000    0.0042    0.0000
       36 FE2    3d0       -0.0086   -0.0082    0.0000   -0.0000    0.0092    0.0121    0.1094    0.0000   -0.0000    0.0154
       37 FE2    4d0        0.0282    0.0473    0.0000    0.0000    0.0153    0.0550    0.5149    0.0000   -0.0000   -0.0774
       38 FE2    3d1+       0.0000    0.0000   -0.0000    0.0001   -0.0000   -0.0000   -0.0000   -0.0008    0.0185    0.0000
       39 FE2    4d1+      -0.0000    0.0000    0.0003   -0.0017    0.0000    0.0000   -0.0000   -0.0042    0.1000    0.0000
       40 FE2    3d2+      -0.0000   -0.0000    0.0000   -0.0000   -0.0000   -0.0000    0.0000    0.0000    0.0000   -0.0000
       41 FE2    4d2+      -0.0000   -0.0000    0.0000   -0.0000   -0.0000   -0.0000    0.0000    0.0000    0.0000   -0.0000
       42 FE2    4f3-       0.0000    0.0000   -0.0000    0.0000    0.0000   -0.0000   -0.0000   -0.0000   -0.0000    0.0000
       43 FE2    4f2-      -0.0000    0.0000    0.0000   -0.0000    0.0000   -0.0000    0.0000    0.0000    0.0000   -0.0000
       44 FE2    4f1-       0.0000    0.0000    0.0018    0.0003   -0.0000   -0.0000    0.0000    0.0026    0.0001   -0.0000
       45 FE2    4f0        0.0041    0.0027    0.0000    0.0000    0.0009   -0.0074    0.0560   -0.0000   -0.0000   -0.0106
       46 FE2    4f1+      -0.0000   -0.0000   -0.0003    0.0018    0.0000    0.0000   -0.0000   -0.0001    0.0026   -0.0000
       47 FE2    4f2+       0.0000    0.0000    0.0000   -0.0000   -0.0000    0.0000   -0.0000    0.0000    0.0000    0.0000
       48 FE2    4f3+      -0.0000   -0.0000    0.0000   -0.0000   -0.0000    0.0000    0.0000    0.0000    0.0000   -0.0000
 
          Orbital           31        32        33        34        35        36        37        38        39        40    
          Energy            1.2477    0.3470    0.2748    0.2566    0.3248    0.2823    2.3507    0.2833    1.7418    1.7204
          Occ. No.          0.0000    0.0000    0.0000    0.0000    0.0000    0.0000    0.0000    0.0000    0.0000    0.0000
 
        1 O1     1s         0.0078    0.0000    0.0000   -0.0000    0.0000   -0.0000   -0.0044   -0.0001    0.0000    0.0000
        2 O1     2s         0.0843    0.0000    0.0000   -0.0000    0.0000   -0.0001   -0.0438   -0.0008    0.0000    0.0000
        3 O1     3s        -0.1053   -0.0000   -0.0000    0.0000   -0.0000    0.0001    0.0516    0.0009   -0.0000   -0.0000
        4 O1     2px       -0.0000   -0.0047    0.0650   -0.0014    0.0609   -0.0002    0.0000   -0.0001    0.0149    0.0172
        5 O1     3px       -0.0000   -0.0656    1.0060    0.0002    0.0662    0.0004   -0.0000    0.0002    0.0655    0.0776
        6 O1     2py        0.0000    0.0772    0.0049    0.0441    0.0018   -0.0000    0.0000   -0.0000    0.0175   -0.0153
        7 O1     3py        0.0000    0.9863    0.0643   -0.1787    0.0042    0.0004   -0.0000    0.0001    0.1117   -0.0976
        8 O1     2pz       -0.0842   -0.0000   -0.0000    0.0000   -0.0000    0.0000    0.0364    0.0007   -0.0000   -0.0000
        9 O1     3pz        0.0277    0.0000    0.0000   -0.0000    0.0000   -0.0000   -0.0296   -0.0005    0.0000    0.0000
       10 O1     3d2-       0.0000   -0.0001   -0.0005   -0.0005    0.0004   -0.0052    0.0017    0.0032   -0.0522   -0.0225
       11 O1     3d1-       0.0000   -0.1661   -0.0100   -0.0319   -0.0019    0.0001    0.0000   -0.0004    0.7457   -0.6363
       12 O1     3d0        0.3116    0.0000    0.0000   -0.0000    0.0000   -0.0002   -0.1455   -0.0027    0.0000    0.0000
       13 O1     3d1+       0.0000    0.0088   -0.1035    0.0024   -0.1140    0.0007   -0.0000    0.0005    0.6303    0.7532
       14 O1     3d2+       0.0000   -0.0001    0.0004    0.0004   -0.0000    0.0004    0.0021   -0.0016   -0.0457   -0.0412
       15 FE2    1s         0.0000    0.0000    0.0000   -0.0000    0.0000   -0.0000   -0.0000   -0.0000    0.0000    0.0000
       16 FE2    2s         0.0002    0.0000    0.0000   -0.0000    0.0000   -0.0000   -0.0003   -0.0000    0.0000    0.0000
       17 FE2    3s         0.0006    0.0000    0.0000   -0.0000    0.0000   -0.0000   -0.0014   -0.0000    0.0000    0.0000
       18 FE2    4s        -0.0055   -0.0000   -0.0000    0.0000   -0.0000    0.0000    0.0019    0.0000   -0.0000   -0.0000
       19 FE2    5s         0.0040   -0.0000   -0.0000    0.0000   -0.0000    0.0000    0.0110    0.0002   -0.0000    0.0000
       20 FE2    2px        0.0000    0.0000   -0.0005    0.0000   -0.0000   -0.0000    0.0000   -0.0000   -0.0000   -0.0000
       21 FE2    3px        0.0000    0.0007   -0.0100   -0.0000   -0.0003   -0.0000    0.0000   -0.0000    0.0001    0.0001
       22 FE2    4px       -0.0000    0.0004   -0.0131   -0.0013    0.0493   -0.0002    0.0000   -0.0001    0.0042    0.0054
       23 FE2    5px       -0.0000   -0.0006    0.0070   -0.0005    0.0214   -0.0001    0.0000   -0.0000    0.0020    0.0024
       24 FE2    2py       -0.0000   -0.0005   -0.0000    0.0001   -0.0000   -0.0000    0.0000   -0.0000   -0.0000    0.0000
       25 FE2    3py       -0.0000   -0.0098   -0.0006    0.0022   -0.0000   -0.0000    0.0000   -0.0000   -0.0002    0.0002
       26 FE2    4py        0.0000   -0.0007   -0.0001    0.0513    0.0013   -0.0000    0.0000   -0.0000    0.0033   -0.0026
       27 FE2    5py        0.0000    0.0120    0.0007    0.0192    0.0006   -0.0000    0.0000   -0.0000    0.0020   -0.0017
       28 FE2    2pz       -0.0000    0.0000    0.0000   -0.0000    0.0000   -0.0000   -0.0000   -0.0000    0.0000   -0.0000
       29 FE2    3pz        0.0006    0.0000    0.0000   -0.0000    0.0000   -0.0000   -0.0011   -0.0000    0.0000    0.0000
       30 FE2    4pz        0.1031    0.0000    0.0000   -0.0000    0.0000   -0.0001   -0.0589   -0.0011    0.0000    0.0000
       31 FE2    5pz        0.0401    0.0000    0.0000   -0.0000    0.0000   -0.0000   -0.0226   -0.0004    0.0000    0.0000
       32 FE2    3d2-      -0.0000    0.0000   -0.0000    0.0000    0.0000   -0.0562   -0.0022    0.1232    0.0002   -0.0000
       33 FE2    4d2-      -0.0000    0.0001   -0.0000    0.0002    0.0003   -0.4112   -0.0159    0.9012    0.0009   -0.0002
       34 FE2    3d1-      -0.0000   -0.0635   -0.0039   -0.1271   -0.0038    0.0001   -0.0000    0.0001   -0.0015    0.0013
       35 FE2    4d1-      -0.0000   -0.3378   -0.0201   -0.9470   -0.0271    0.0008   -0.0000    0.0006   -0.0273    0.0235
       36 FE2    3d0       -0.1088   -0.0000   -0.0000    0.0000   -0.0000    0.0001    0.0692    0.0013   -0.0000   -0.0000
       37 FE2    4d0       -0.7724   -0.0000   -0.0000    0.0000   -0.0000    0.0007    0.4985    0.0091   -0.0000   -0.0000
       38 FE2    3d1+       0.0000    0.0032   -0.0302    0.0035   -0.1387    0.0005   -0.0000    0.0003   -0.0040   -0.0049
       39 FE2    4d1+       0.0000    0.0149   -0.0956    0.0253   -0.9989    0.0039   -0.0000    0.0021   -0.0468   -0.0565
       40 FE2    3d2+       0.0000   -0.0000   -0.0001    0.0001    0.0006    0.1232   -0.0012    0.0562    0.0001    0.0000
       41 FE2    4d2+       0.0000   -0.0002   -0.0007    0.0010    0.0045    0.9014   -0.0087    0.4111    0.0003   -0.0001
       42 FE2    4f3-      -0.0000    0.0001    0.0000    0.0000    0.0003    0.0026   -0.0014    0.0012   -0.0371   -0.0099
       43 FE2    4f2-       0.0000    0.0002   -0.0000    0.0001    0.0003    0.0032    0.0026    0.0106   -0.0175    0.0355
       44 FE2    4f1-      -0.0000   -0.0060   -0.0004   -0.0034   -0.0002    0.0014    0.0000   -0.0022    0.0254    0.0127
       45 FE2    4f0       -0.5316    0.0000    0.0000   -0.0000    0.0000   -0.0011   -0.8463   -0.0154    0.0000   -0.0000
       46 FE2    4f1+      -0.0000    0.0002   -0.0016    0.0004   -0.0071    0.0006    0.0000   -0.0009   -0.0476    0.0307
       47 FE2    4f2+       0.0000   -0.0000    0.0004   -0.0011    0.0001   -0.0005    0.0005    0.0002   -0.0005    0.0130
       48 FE2    4f3+       0.0000    0.0000   -0.0000    0.0000   -0.0006   -0.0003    0.0016    0.0030    0.1182    0.0032
 
          Orbital           41        42        43        44        45        46    
          Energy            2.6711    3.1101    3.1225    2.8771    1.7521    3.1042
          Occ. No.          0.0000    0.0000    0.0000    0.0000    0.0000    0.0000
 
        1 O1     1s        -0.0000    0.0000    0.0000    0.0000   -0.0000    0.0000
        2 O1     2s        -0.0000    0.0000    0.0000    0.0000   -0.0000    0.0000
        3 O1     3s         0.0000   -0.0000   -0.0000    0.0000    0.0000    0.0000
        4 O1     2px        0.0022   -0.0012   -0.0079   -0.0030   -0.0000    0.0004
        5 O1     3px        0.0097   -0.0054   -0.0169   -0.0090    0.0005    0.0021
        6 O1     2py        0.0014   -0.0018    0.0047   -0.0043    0.0004   -0.0002
        7 O1     3py        0.0089   -0.0115    0.0149   -0.0058    0.0020   -0.0007
        8 O1     2pz        0.0000   -0.0000   -0.0000   -0.0000    0.0000   -0.0000
        9 O1     3pz       -0.0000    0.0000    0.0000   -0.0000    0.0000   -0.0000
       10 O1     3d2-       0.3665   -0.0158   -0.0031   -0.2805    0.7581    0.0776
       11 O1     3d1-       0.0590   -0.0766    0.0523    0.0294    0.0139   -0.0059
       12 O1     3d0       -0.0000    0.0000    0.0000   -0.0000   -0.0000   -0.0000
       13 O1     3d1+       0.0947   -0.0520    0.0255   -0.0425   -0.0012    0.0169
       14 O1     3d2+       0.4273   -0.0222   -0.0022   -0.3189   -0.6520    0.0991
       15 FE2    1s        -0.0000    0.0000   -0.0000   -0.0000    0.0000   -0.0000
       16 FE2    2s        -0.0000    0.0000   -0.0000   -0.0000    0.0000   -0.0000
       17 FE2    3s        -0.0000    0.0000   -0.0000   -0.0000    0.0000   -0.0000
       18 FE2    4s        -0.0000   -0.0000   -0.0000   -0.0000   -0.0000   -0.0000
       19 FE2    5s        -0.0000    0.0000    0.0000   -0.0000   -0.0000   -0.0000
       20 FE2    2px       -0.0000    0.0000    0.0000    0.0000   -0.0000   -0.0000
       21 FE2    3px        0.0000   -0.0000    0.0003    0.0001   -0.0000   -0.0000
       22 FE2    4px        0.0006   -0.0003    0.0038    0.0006   -0.0000    0.0001
       23 FE2    5px        0.0003   -0.0001    0.0007    0.0000   -0.0000    0.0001
       24 FE2    2py       -0.0000    0.0000   -0.0000    0.0000   -0.0000    0.0000
       25 FE2    3py       -0.0000    0.0000   -0.0001    0.0002   -0.0000   -0.0000
       26 FE2    4py        0.0002   -0.0003   -0.0012    0.0022    0.0001   -0.0001
       27 FE2    5py        0.0002   -0.0002   -0.0001    0.0005    0.0000   -0.0000
       28 FE2    2pz        0.0000   -0.0000   -0.0000   -0.0000    0.0000   -0.0000
       29 FE2    3pz       -0.0000    0.0000   -0.0000   -0.0000    0.0000   -0.0000
       30 FE2    4pz       -0.0000    0.0000    0.0000   -0.0000   -0.0000   -0.0000
       31 FE2    5pz       -0.0000    0.0000    0.0000   -0.0000   -0.0000   -0.0000
       32 FE2    3d2-      -0.0009    0.0001    0.0000    0.0002   -0.0025   -0.0002
       33 FE2    4d2-      -0.0049    0.0000    0.0000    0.0013   -0.0145   -0.0010
       34 FE2    3d1-      -0.0001    0.0002   -0.0001    0.0000   -0.0001    0.0002
       35 FE2    4d1-      -0.0021    0.0029   -0.0018   -0.0008   -0.0011    0.0013
       36 FE2    3d0        0.0000   -0.0000   -0.0000    0.0000    0.0000    0.0000
       37 FE2    4d0        0.0000   -0.0000   -0.0000    0.0000    0.0000    0.0000
       38 FE2    3d1+      -0.0005    0.0003   -0.0002    0.0003    0.0000   -0.0001
       39 FE2    4d1+      -0.0064    0.0033   -0.0033    0.0029    0.0004   -0.0015
       40 FE2    3d2+      -0.0011    0.0000    0.0000   -0.0001    0.0019   -0.0000
       41 FE2    4d2+      -0.0059    0.0001    0.0000   -0.0024    0.0106   -0.0012
       42 FE2    4f3-       0.7465    0.4220   -0.0022    0.3241   -0.0000   -0.0982
       43 FE2    4f2-       0.0023   -0.2659    0.0032    0.5937    0.0047    0.0184
       44 FE2    4f1-      -0.0014    0.0015   -0.3771    0.5528   -0.0003    0.0001
       45 FE2    4f0       -0.0000   -0.0000    0.0000   -0.0000   -0.0000   -0.0000
       46 FE2    4f1+      -0.0022    0.0088    0.9246    0.2218    0.0000   -0.0004
       47 FE2    4f2+       0.0027   -0.0637   -0.0006   -0.0753   -0.0041   -0.9870
       48 FE2    4f3+      -0.3364    0.8588   -0.0008    0.0015    0.0000   -0.0148
--
 
 
++    Molecular properties:
      ---------------------
 
      Charge (e):
                      =    2.0000
      Dipole Moment (Debye):
      Origin of the operator (Ang)=    0.0000    0.0000    0.0000
                   X= -2.0367E-12               Y=  1.9761E-12               Z= -5.7183E+00           Total=  5.7183E+00
      Center of Charge (Ang)
                     X=   -0.00000000               Y=    0.00000000               Z=   -0.59525884
      Quadrupole Moment (Debye*Ang):
      Origin of the operator (Ang)=    0.0000    0.0000   -0.0587
                  XX= -1.4301E+01              XY= -9.1094E-15              XZ= -8.0665E-12              YY= -1.4301E+01
                  YZ=  2.1466E-11              ZZ= -8.3078E+00
      In traceless form (Debye*Ang)
                  XX= -2.9964E+00              XY= -1.3664E-14              XZ= -1.2100E-11              YY= -2.9964E+00
                  YZ=  3.2199E-11              ZZ=  5.9928E+00
--
 
 
  Input file to MOLDEN was generated!
 
 ###############################################################################
 ###############################################################################
 ###                                                                         ###
 ###                                                                         ###
 ###    RunFile label nBas                                                   ###
 ###    was used       86 times                                              ###
 ###                                                                         ###
 ###                                                                         ###
 ###############################################################################
 ###############################################################################
--- Stop Module: scf at Sun Dec 22 22:06:59 2024 /rc=_RC_ALL_IS_WELL_ ---
*** files: 3.09.LprOrb 3.09.LoProp.molden 3.09.scf.molden 3.09.scf.h5 3.09.UhfOrb 3.09.UnaOrb xmldump
    saved to directory /home/grierjones/DDCASPT2/iron_oxo_DDCASPT2/cluster/3.09

>>> COPY /tmp/3.09/3.09.scf.h5 /home/grierjones/DDCASPT2/iron_oxo_DDCASPT2/cluster/3.09/

*** symbolic link created: INPORB -> 3.09.UnaOrb
--- Start Module: rasscf at Sun Dec 22 22:06:59 2024 ---
 
()()()()()()()()()()()()()()()()()()()()()()()()()()()()()()()()()()()()()()()()()()()()()()()()()()

                                              &RASSCF

                                   only a single process is used
                       available to each process: 2.0 GB of memory, 1 thread?
()()()()()()()()()()()()()()()()()()()()()()()()()()()()()()()()()()()()()()()()()()()()()()()()()()
 
 ###############################################################################
 ###############################################################################
 ###                                                                         ###
 ###                                                                         ###
 ###    LUMORB input error.                                                  ###
 ###                                                                         ###
 ###                                                                         ###
 ###############################################################################
 ###############################################################################
  Keyword LUMORB used with file name StartOrbFile=
 /home/grierjones/DDCASPT2/iron_oxo_DDCASPT2/cluster/3.08/3.08.RasOrb           
                                                  
  but that file cannot be used. Perhaps it does
  not exist?
 
 *************** WARNING ****************
 ###############################################################################
 ###############################################################################
 ###                                                                         ###
 ###                                                                         ###
 ###    Too many macro-iterations.                                           ###
 ###                                                                         ###
 ###                                                                         ###
 ###############################################################################
 ###############################################################################
 Too many macro-iterations requested.
 Reset to maximum, new MAXIT=     200
 ****************************************
 
 *************** WARNING ****************
 ###############################################################################
 ###############################################################################
 ###                                                                         ###
 ###                                                                         ###
 ###    Too many SX-iterations.                                              ###
 ###                                                                         ###
 ###                                                                         ###
 ###############################################################################
 ###############################################################################
 Too many SX-iterations requested.
 Reset to maximum, new ITMAX=     100
 ****************************************
 
      Header of the ONEINT file:
      --------------------------
      
      Integrals generated by seward 4.2.0  , Sun Dec 22 22:06:58 2024
 
 
      OrdInt status: non-squared
 
 
      Cartesian coordinates in Angstrom:
      -----------------------------------------------------
      No.  Label        X            Y            Z        
      -----------------------------------------------------
       1   O1         0.00000000   0.00000000   2.34649000
       2   FE2        0.00000000   0.00000000  -0.74649000
      -----------------------------------------------------
      Nuclear repulsion energy =   35.58667040
 
++    Wave function specifications:
      -----------------------------
 
      Number of closed shell electrons          22
      Number of electrons in active shells      10
      Max number of holes in RAS1 space          0
      Max nr of electrons in RAS3 space          0
      Number of inactive orbitals               11
      Number of active orbitals                 14
      Number of secondary orbitals              23
      Spin quantum number                      2.0
      State symmetry                             1
--
 
++    Orbital specifications:
      -----------------------
 
      Symmetry species                           1
                                                 a
      Frozen orbitals                            0
      Inactive orbitals                         11
      Active orbitals                           14
      RAS1 orbitals                              0
      RAS2 orbitals                             14
      RAS3 orbitals                              0
      Secondary orbitals                        23
      Deleted orbitals                           0
      Number of basis functions                 48
--
 
++    CI expansion specifications:
      ----------------------------
 
      Number of CSFs                        975975
      Number of determinants               1249248
      Number of root(s) required                 1
      Root chosen for geometry opt.              1
      CI root used                               1
         
      highest root included in the CI            1
      max. size of the explicit Hamiltonian    200
--
 
++    Optimization specifications:
      ----------------------------
 
      RASSCF algorithm: Conventional
      Maximum number of macro iterations       200
      Maximum number of SX iterations          100
      Threshold for RASSCF energy            0.100E-07
      Threshold for max MO rotation          0.100E+00
      Threshold for max BLB element          0.100E-03
      Level shift parameter                  0.500E+00
      Make Quasi-Newton update
--
 
 ###############################################################################
 ###############################################################################
 ###                                                                         ###
 ###                                                                         ###
 ###    Location: rdVec_                                                     ###
 ###    File: /home/grierjones/DDCASPT2/iron_oxo_DDCASPT2/cluster/3.08/3.08.RasOrb\n\n\n
 ###    ile: /home/grierjones/DDCASPT2/iron_oxo_DDCASPT2/cluster/3.08/3.08.RasOrb\n\n\n
 ###    le: /home/grierjones/DDCASPT2/iron_oxo_DDCASPT2/cluster/3.08/3.08.RasOrb\n\n\n
 ###    e: /home/grierjones/DDCASPT2/iron_oxo_DDCASPT2/cluster/3.08/3.08.RasOrb\n\n\n
 ###    : /home/grierjones/DDCASPT2/iron_oxo_DDCASPT2/cluster/3.08/3.08.RasOrb\n\n\n
 ###     /home/grierjones/DDCASPT2/iron_oxo_DDCASPT2/cluster/3.08/3.08.RasOrb\n\n\n
 ###    /home/grierjones/DDCASPT2/iron_oxo_DDCASPT2/cluster/3.08/3.08.RasOrb\n\n\n
 ###    home/grierjones/DDCASPT2/iron_oxo_DDCASPT2/cluster/3.08/3.08.RasOrb\n\n\n
 ###    ome/grierjones/DDCASPT2/iron_oxo_DDCASPT2/cluster/3.08/3.08.RasOrb\n\n\n
 ###    me/grierjones/DDCASPT2/iron_oxo_DDCASPT2/cluster/3.08/3.08.RasOrb\n\n\n
 ###    e/grierjones/DDCASPT2/iron_oxo_DDCASPT2/cluster/3.08/3.08.RasOrb\n\n\n
 ###    /grierjones/DDCASPT2/iron_oxo_DDCASPT2/cluster/3.08/3.08.RasOrb\n\n\n
 ###    grierjones/DDCASPT2/iron_oxo_DDCASPT2/cluster/3.08/3.08.RasOrb\n\n\n
 ###    rierjones/DDCASPT2/iron_oxo_DDCASPT2/cluster/3.08/3.08.RasOrb\n\n\n  ###
 ###    ierjones/DDCASPT2/iron_oxo_DDCASPT2/cluster/3.08/3.08.RasOrb\n\n\n   ###
 ###    erjones/DDCASPT2/iron_oxo_DDCASPT2/cluster/3.08/3.08.RasOrb          ###
 ###                                                                         ###
 ###                                                                         ###
 ###    Error during reading INPORB                                          ###
 ###     not defined yet                                                     ###
 ###                                                                         ###
 ###                                                                         ###
 ###############################################################################
 ###############################################################################
[ process      0]: xquit (rc =    128): _INTERNAL_ERROR_
abort: 
--- Stop Module: rasscf at Sun Dec 22 22:07:00 2024 /rc=_RC_FLOATING_EXCEPTION_ ---
*** files: xmldump
    saved to directory /home/grierjones/DDCASPT2/iron_oxo_DDCASPT2/cluster/3.09

.########################.
.# Non-zero return code #.
.########################.

    Timing: Wall=1.81 User=1.52 System=0.29
************************************
*** WorkDir at /tmp/3.09 cleaned ***
************************************
