[Molden Format]
[N_Atoms]
                     2
[Atoms] (AU)
C1          1      6           0.00000000      0.00000000      0.00000000
C2          2      6           0.00000000      0.00000000      5.29123315
[Charge] (Mulliken)
  0.000000000000000E+000
  0.000000000000000E+000
[GTO] (AU)
   1
   s  14
  5.055750100E+04  1.128874000E-04
  7.524785600E+03  5.295373000E-04
  1.694327600E+03  2.450038300E-03
  4.728227900E+02  1.005398470E-02
  1.517107500E+02  3.545398060E-02
  5.391874600E+01  1.044071086E-01
  2.065931100E+01  2.412894918E-01
  8.383976000E+00  3.834225483E-01
  3.577015000E+00  3.078514393E-01
  1.547118000E+00  6.872442990E-02
  6.130130000E-01  2.224445000E-04
  2.460680000E-01  1.976748900E-03
  9.908700000E-02  2.057859400E-03
  3.468000000E-02  4.182020000E-04
   s  14
  5.055750100E+04 -2.507420000E-05
  7.524785600E+03 -1.175945000E-04
  1.694327600E+03 -5.456275000E-04
  4.728227900E+02 -2.245077100E-03
  1.517107500E+02 -8.043471800E-03
  5.391874600E+01 -2.442588710E-02
  2.065931100E+01 -6.136791180E-02
  8.383976000E+00 -1.177767835E-01
  3.577015000E+00 -1.550487783E-01
  1.547118000E+00 -1.933316860E-02
  6.130130000E-01  3.996930678E-01
  2.460680000E-01  5.589420949E-01
  9.908700000E-02  1.711195023E-01
  3.468000000E-02  7.456244600E-03
   p   9
  8.333315500E+01  1.344656000E-03
  1.955761100E+01  1.023555500E-02
  6.080365000E+00  4.520067100E-02
  2.179317000E+00  1.410756198E-01
  8.651500000E-01  3.047388085E-01
  3.619440000E-01  3.995281011E-01
  1.547400000E-01  2.719163432E-01
  6.542900000E-02  5.857669330E-02
  2.290000000E-02 -1.263813000E-04
 
   2
   s  14
  5.055750100E+04  1.128874000E-04
  7.524785600E+03  5.295373000E-04
  1.694327600E+03  2.450038300E-03
  4.728227900E+02  1.005398470E-02
  1.517107500E+02  3.545398060E-02
  5.391874600E+01  1.044071086E-01
  2.065931100E+01  2.412894918E-01
  8.383976000E+00  3.834225483E-01
  3.577015000E+00  3.078514393E-01
  1.547118000E+00  6.872442990E-02
  6.130130000E-01  2.224445000E-04
  2.460680000E-01  1.976748900E-03
  9.908700000E-02  2.057859400E-03
  3.468000000E-02  4.182020000E-04
   s  14
  5.055750100E+04 -2.507420000E-05
  7.524785600E+03 -1.175945000E-04
  1.694327600E+03 -5.456275000E-04
  4.728227900E+02 -2.245077100E-03
  1.517107500E+02 -8.043471800E-03
  5.391874600E+01 -2.442588710E-02
  2.065931100E+01 -6.136791180E-02
  8.383976000E+00 -1.177767835E-01
  3.577015000E+00 -1.550487783E-01
  1.547118000E+00 -1.933316860E-02
  6.130130000E-01  3.996930678E-01
  2.460680000E-01  5.589420949E-01
  9.908700000E-02  1.711195023E-01
  3.468000000E-02  7.456244600E-03
   p   9
  8.333315500E+01  1.344656000E-03
  1.955761100E+01  1.023555500E-02
  6.080365000E+00  4.520067100E-02
  2.179317000E+00  1.410756198E-01
  8.651500000E-01  3.047388085E-01
  3.619440000E-01  3.995281011E-01
  1.547400000E-01  2.719163432E-01
  6.542900000E-02  5.857669330E-02
  2.290000000E-02 -1.263813000E-04
 
[MO]
Sym=     1a  
Ene=   -11.3280
Spin= Alpha
Occup=    2.00000
   1         0.70708361
   2         0.00011310
   3        -0.00000000
   4        -0.00000000
   5         0.00017890
   6         0.70708361
   7         0.00011310
   8        -0.00000000
   9        -0.00000000
  10        -0.00017890
Sym=     2a  
Ene=   -11.3270
Spin= Alpha
Occup=    2.00000
   1        -0.70712712
   2         0.00011020
   3        -0.00000000
   4         0.00000000
   5         0.00017641
   6         0.70712712
   7        -0.00011020
   8         0.00000000
   9         0.00000000
  10         0.00017641
Sym=     3a  
Ene=    -0.7518
Spin= Alpha
Occup=    2.00000
   1        -0.00239214
   2         0.67273043
   3        -0.00000000
   4         0.00000000
   5         0.10087379
   6        -0.00239214
   7         0.67273043
   8         0.00000000
   9         0.00000000
  10        -0.10087379
Sym=     4a  
Ene=    -0.6770
Spin= Alpha
Occup=    2.00000
   1        -0.00115854
   2        -0.71135403
   3         0.00000000
   4         0.00000000
   5         0.09580775
   6         0.00115854
   7         0.71135403
   8         0.00000000
   9         0.00000000
  10         0.09580775
Sym=     5a  
Ene=    -0.4782
Spin= Alpha
Occup=    2.00000
   1         0.00394910
   2         0.16098454
   3        -0.00000000
   4         0.00000000
   5        -0.66276426
   6         0.00394910
   7         0.16098454
   8        -0.00000000
   9         0.00000000
  10         0.66276426
Sym=     6a  
Ene=    -0.4503
Spin= Alpha
Occup=    1.00000
   1         0.00000000
   2         0.00000000
   3         0.02005108
   4         0.69500548
   5         0.00000000
   6        -0.00000000
   7        -0.00000000
   8         0.02005108
   9         0.69500548
  10        -0.00000000
Sym=     7a  
Ene=    -0.4503
Spin= Alpha
Occup=    1.00000
   1         0.00000000
   2         0.00000000
   3         0.69500548
   4        -0.02005108
   5         0.00000000
   6        -0.00000000
   7        -0.00000000
   8         0.69500548
   9        -0.02005108
  10         0.00000000
Sym=     8a  
Ene=    -0.4205
Spin= Alpha
Occup=    0.00000
   1         0.00000000
   2        -0.00000000
   3        -0.69430434
   4        -0.18889773
   5         0.00000000
   6         0.00000000
   7        -0.00000000
   8         0.69430434
   9         0.18889773
  10        -0.00000000
Sym=     9a  
Ene=    -0.4205
Spin= Alpha
Occup=    0.00000
   1         0.00000000
   2        -0.00000000
   3         0.18889773
   4        -0.69430434
   5         0.00000000
   6         0.00000000
   7         0.00000000
   8        -0.18889773
   9         0.69430434
  10        -0.00000000
Sym=    10a  
Ene=    -0.3743
Spin= Alpha
Occup=    0.00000
   1         0.00528913
   2         0.16399125
   3        -0.00000000
   4        -0.00000000
   5         0.75166065
   6        -0.00528913
   7        -0.16399125
   8        -0.00000000
   9         0.00000000
  10         0.75166065
