[Molden Format]
[N_Atoms]
                     2
[Atoms] (AU)
C1          1      6           0.00000000      0.00000000      0.00000000
C2          2      6           0.00000000      0.00000000      5.29123315
[Charge] (Mulliken)
   1.00311845052374     
  0.996881549476230     
[GTO] (AU)
   1
   s  14
  5.055750100E+04  1.128874000E-04
  7.524785600E+03  5.295373000E-04
  1.694327600E+03  2.450038300E-03
  4.728227900E+02  1.005398470E-02
  1.517107500E+02  3.545398060E-02
  5.391874600E+01  1.044071086E-01
  2.065931100E+01  2.412894918E-01
  8.383976000E+00  3.834225483E-01
  3.577015000E+00  3.078514393E-01
  1.547118000E+00  6.872442990E-02
  6.130130000E-01  2.224445000E-04
  2.460680000E-01  1.976748900E-03
  9.908700000E-02  2.057859400E-03
  3.468000000E-02  4.182020000E-04
   s  14
  5.055750100E+04 -2.507420000E-05
  7.524785600E+03 -1.175945000E-04
  1.694327600E+03 -5.456275000E-04
  4.728227900E+02 -2.245077100E-03
  1.517107500E+02 -8.043471800E-03
  5.391874600E+01 -2.442588710E-02
  2.065931100E+01 -6.136791180E-02
  8.383976000E+00 -1.177767835E-01
  3.577015000E+00 -1.550487783E-01
  1.547118000E+00 -1.933316860E-02
  6.130130000E-01  3.996930678E-01
  2.460680000E-01  5.589420949E-01
  9.908700000E-02  1.711195023E-01
  3.468000000E-02  7.456244600E-03
   p   9
  8.333315500E+01  1.344656000E-03
  1.955761100E+01  1.023555500E-02
  6.080365000E+00  4.520067100E-02
  2.179317000E+00  1.410756198E-01
  8.651500000E-01  3.047388085E-01
  3.619440000E-01  3.995281011E-01
  1.547400000E-01  2.719163432E-01
  6.542900000E-02  5.857669330E-02
  2.290000000E-02 -1.263813000E-04
 
   2
   s  14
  5.055750100E+04  1.128874000E-04
  7.524785600E+03  5.295373000E-04
  1.694327600E+03  2.450038300E-03
  4.728227900E+02  1.005398470E-02
  1.517107500E+02  3.545398060E-02
  5.391874600E+01  1.044071086E-01
  2.065931100E+01  2.412894918E-01
  8.383976000E+00  3.834225483E-01
  3.577015000E+00  3.078514393E-01
  1.547118000E+00  6.872442990E-02
  6.130130000E-01  2.224445000E-04
  2.460680000E-01  1.976748900E-03
  9.908700000E-02  2.057859400E-03
  3.468000000E-02  4.182020000E-04
   s  14
  5.055750100E+04 -2.507420000E-05
  7.524785600E+03 -1.175945000E-04
  1.694327600E+03 -5.456275000E-04
  4.728227900E+02 -2.245077100E-03
  1.517107500E+02 -8.043471800E-03
  5.391874600E+01 -2.442588710E-02
  2.065931100E+01 -6.136791180E-02
  8.383976000E+00 -1.177767835E-01
  3.577015000E+00 -1.550487783E-01
  1.547118000E+00 -1.933316860E-02
  6.130130000E-01  3.996930678E-01
  2.460680000E-01  5.589420949E-01
  9.908700000E-02  1.711195023E-01
  3.468000000E-02  7.456244600E-03
   p   9
  8.333315500E+01  1.344656000E-03
  1.955761100E+01  1.023555500E-02
  6.080365000E+00  4.520067100E-02
  2.179317000E+00  1.410756198E-01
  8.651500000E-01  3.047388085E-01
  3.619440000E-01  3.995281011E-01
  1.547400000E-01  2.719163432E-01
  6.542900000E-02  5.857669330E-02
  2.290000000E-02 -1.263813000E-04
 
[MO]
Sym=     1a  
Ene=   -12.2280
Spin= Alpha
Occup=    2.00000
   1         0.99980469
   2        -0.01658677
   3        -0.00000000
   4         0.00000000
   5        -0.00074624
   6         0.01071766
   7         0.00047526
   8        -0.00000000
   9         0.00000000
  10         0.00021043
Sym=     2a  
Ene=   -12.2260
Spin= Alpha
Occup=    2.00000
   1        -0.01072693
   2         0.00000743
   3        -0.00000000
   4         0.00000000
   5        -0.00012847
   6         0.99993323
   7        -0.00457952
   8        -0.00000000
   9         0.00000000
  10         0.00014122
Sym=     3a  
Ene=    -1.3805
Spin= Alpha
Occup=    2.00000
   1        -0.00225081
   2        -0.00329467
   3        -0.00000000
   4         0.00000001
   5         0.01054176
   6         0.00454044
   7         0.99762501
   8        -0.00000000
   9         0.00000000
  10        -0.05417179
Sym=     4a  
Ene=    -0.9010
Spin= Alpha
Occup=    2.00000
   1        -0.00000000
   2         0.00000002
   3        -0.26380078
   4         0.64188568
   5         0.00000016
   6        -0.00000000
   7        -0.00000004
   8        -0.26479946
   9         0.64431570
  10        -0.00000016
Sym=     5a  
Ene=    -0.5885
Spin= Alpha
Occup=    0.04864
   1        -0.00000000
   2         0.00000000
   3         0.92524990
   4         0.38025719
   5        -0.00000000
   6         0.00000000
   7         0.00000000
   8        -0.01118757
   9        -0.00459784
  10         0.00000000
Sym=     6a  
Ene=    -0.0014
Spin= Alpha
Occup=    1.95136
   1        -0.01670437
   2        -0.99961596
   3        -0.00000001
   4         0.00000003
   5        -0.05172697
   6         0.00252429
   7         0.05981841
   8        -0.00000001
   9         0.00000002
  10         0.00535992
Sym=     7a  
Ene=    -0.7021
Spin= Alpha
Occup=    0.00000
   1        -0.00000000
   2        -0.00000001
   3         0.27399975
   4        -0.66670203
   5        -0.00000015
   6         0.00000000
   7         0.00000001
   8        -0.27303472
   9         0.66435389
  10        -0.00000015
Sym=     8a  
Ene=    -0.6250
Spin= Alpha
Occup=    0.00000
   1         0.00395408
   2         0.10036128
   3        -0.00000006
   4         0.00000016
   5        -0.67241805
   6         0.00400748
   7         0.10393191
   8        -0.00000006
   9         0.00000015
  10         0.66558242
Sym=     9a  
Ene=    -0.5763
Spin= Alpha
Occup=    0.00000
   1        -0.00000000
   2         0.00000000
   3        -0.02052903
   4        -0.00843698
   5         0.00000000
   6         0.00000000
   7         0.00000000
   8         0.92541000
   9         0.38032298
  10         0.00000000
Sym=    10a  
Ene=    -0.5374
Spin= Alpha
Occup=    0.00000
   1        -0.00473533
   2        -0.04253879
   3        -0.00000005
   4         0.00000013
   5        -0.75410311
   6         0.00471838
   7         0.04174962
   8         0.00000005
   9        -0.00000013
  10        -0.76002735
