[Molden Format]
[N_Atoms]
                     2
[Atoms] (AU)
C1          1      6           0.00000000      0.00000000      0.00000000
C2          2      6           0.00000000      0.00000000      5.29123315
[Charge] (Mulliken)
  7.228884157939319E-011
 -7.230482879094779E-011
[GTO] (AU)
   1
   s  14
  5.055750100E+04  1.128874000E-04
  7.524785600E+03  5.295373000E-04
  1.694327600E+03  2.450038300E-03
  4.728227900E+02  1.005398470E-02
  1.517107500E+02  3.545398060E-02
  5.391874600E+01  1.044071086E-01
  2.065931100E+01  2.412894918E-01
  8.383976000E+00  3.834225483E-01
  3.577015000E+00  3.078514393E-01
  1.547118000E+00  6.872442990E-02
  6.130130000E-01  2.224445000E-04
  2.460680000E-01  1.976748900E-03
  9.908700000E-02  2.057859400E-03
  3.468000000E-02  4.182020000E-04
   s  14
  5.055750100E+04 -2.507420000E-05
  7.524785600E+03 -1.175945000E-04
  1.694327600E+03 -5.456275000E-04
  4.728227900E+02 -2.245077100E-03
  1.517107500E+02 -8.043471800E-03
  5.391874600E+01 -2.442588710E-02
  2.065931100E+01 -6.136791180E-02
  8.383976000E+00 -1.177767835E-01
  3.577015000E+00 -1.550487783E-01
  1.547118000E+00 -1.933316860E-02
  6.130130000E-01  3.996930678E-01
  2.460680000E-01  5.589420949E-01
  9.908700000E-02  1.711195023E-01
  3.468000000E-02  7.456244600E-03
   p   9
  8.333315500E+01  1.344656000E-03
  1.955761100E+01  1.023555500E-02
  6.080365000E+00  4.520067100E-02
  2.179317000E+00  1.410756198E-01
  8.651500000E-01  3.047388085E-01
  3.619440000E-01  3.995281011E-01
  1.547400000E-01  2.719163432E-01
  6.542900000E-02  5.857669330E-02
  2.290000000E-02 -1.263813000E-04
 
   2
   s  14
  5.055750100E+04  1.128874000E-04
  7.524785600E+03  5.295373000E-04
  1.694327600E+03  2.450038300E-03
  4.728227900E+02  1.005398470E-02
  1.517107500E+02  3.545398060E-02
  5.391874600E+01  1.044071086E-01
  2.065931100E+01  2.412894918E-01
  8.383976000E+00  3.834225483E-01
  3.577015000E+00  3.078514393E-01
  1.547118000E+00  6.872442990E-02
  6.130130000E-01  2.224445000E-04
  2.460680000E-01  1.976748900E-03
  9.908700000E-02  2.057859400E-03
  3.468000000E-02  4.182020000E-04
   s  14
  5.055750100E+04 -2.507420000E-05
  7.524785600E+03 -1.175945000E-04
  1.694327600E+03 -5.456275000E-04
  4.728227900E+02 -2.245077100E-03
  1.517107500E+02 -8.043471800E-03
  5.391874600E+01 -2.442588710E-02
  2.065931100E+01 -6.136791180E-02
  8.383976000E+00 -1.177767835E-01
  3.577015000E+00 -1.550487783E-01
  1.547118000E+00 -1.933316860E-02
  6.130130000E-01  3.996930678E-01
  2.460680000E-01  5.589420949E-01
  9.908700000E-02  1.711195023E-01
  3.468000000E-02  7.456244600E-03
   p   9
  8.333315500E+01  1.344656000E-03
  1.955761100E+01  1.023555500E-02
  6.080365000E+00  4.520067100E-02
  2.179317000E+00  1.410756198E-01
  8.651500000E-01  3.047388085E-01
  3.619440000E-01  3.995281011E-01
  1.547400000E-01  2.719163432E-01
  6.542900000E-02  5.857669330E-02
  2.290000000E-02 -1.263813000E-04
 
[MO]
Sym=     1a  
Ene=   -11.2730
Spin= Alpha
Occup=    1.00000
   1         0.70708523
   2        -0.00203062
   3         0.00000000
   4        -0.00000000
   5         0.00024575
   6         0.70708532
   7        -0.00203062
   8         0.00000000
   9        -0.00000000
  10        -0.00024575
Sym=     1a  
Ene=   -11.2730
Spin= Beta
Occup=    1.00000
   1         0.70708523
   2        -0.00203062
   3         0.00000000
   4        -0.00000000
   5         0.00024575
   6         0.70708532
   7        -0.00203062
   8         0.00000000
   9        -0.00000000
  10        -0.00024575
Sym=     2a  
Ene=   -11.2730
Spin= Alpha
Occup=    1.00000
   1        -0.70712543
   2         0.00167819
   3         0.00000000
   4        -0.00000000
   5        -0.00047589
   6         0.70712535
   7        -0.00167819
   8         0.00000000
   9         0.00000000
  10        -0.00047589
Sym=     2a  
Ene=   -11.2730
Spin= Beta
Occup=    1.00000
   1        -0.70712543
   2         0.00167819
   3         0.00000000
   4        -0.00000000
   5        -0.00047589
   6         0.70712535
   7        -0.00167819
   8         0.00000000
   9         0.00000000
  10        -0.00047589
Sym=     3a  
Ene=    -0.7144
Spin= Alpha
Occup=    1.00000
   1         0.00018498
   2         0.68509695
   3         0.00000000
   4        -0.00000000
   5         0.03662852
   6         0.00018498
   7         0.68509695
   8        -0.00000000
   9        -0.00000000
  10        -0.03662852
Sym=     3a  
Ene=    -0.7144
Spin= Beta
Occup=    1.00000
   1         0.00018498
   2         0.68509695
   3         0.00000000
   4        -0.00000000
   5         0.03662852
   6         0.00018498
   7         0.68509695
   8        -0.00000000
   9        -0.00000000
  10        -0.03662852
Sym=     4a  
Ene=    -0.6640
Spin= Alpha
Occup=    1.00000
   1        -0.00306544
   2        -0.71905101
   3        -0.00000000
   4         0.00000000
   5         0.05579098
   6         0.00306544
   7         0.71905101
   8         0.00000000
   9         0.00000000
  10         0.05579098
Sym=     4a  
Ene=    -0.6640
Spin= Beta
Occup=    1.00000
   1        -0.00306544
   2        -0.71905101
   3        -0.00000000
   4         0.00000000
   5         0.05579098
   6         0.00306544
   7         0.71905101
   8         0.00000000
   9         0.00000000
  10         0.05579098
Sym=     5a  
Ene=    -0.2442
Spin= Alpha
Occup=    1.00000
   1         0.00435120
   2         0.09550035
   3         0.00000000
   4        -0.00000000
   5        -0.66939548
   6         0.00435120
   7         0.09550035
   8         0.00000000
   9         0.00000000
  10         0.66939548
Sym=     5a  
Ene=    -0.2442
Spin= Beta
Occup=    1.00000
   1         0.00435120
   2         0.09550035
   3         0.00000000
   4        -0.00000000
   5        -0.66939548
   6         0.00435120
   7         0.09550035
   8         0.00000000
   9         0.00000000
  10         0.66939548
Sym=     6a  
Ene=    -0.2040
Spin= Alpha
Occup=    1.00000
   1         0.00000000
   2         0.00000000
   3         0.02005108
   4         0.69500548
   5         0.00000000
   6        -0.00000000
   7        -0.00000000
   8         0.02005108
   9         0.69500548
  10         0.00000000
Sym=     6a  
Ene=    -0.2040
Spin= Beta
Occup=    1.00000
   1         0.00000000
   2         0.00000000
   3         0.02005108
   4         0.69500548
   5         0.00000000
   6        -0.00000000
   7        -0.00000000
   8         0.02005108
   9         0.69500548
  10         0.00000000
Sym=     7a  
Ene=     0.0046
Spin= Alpha
Occup=    0.00000
   1        -0.00000000
   2        -0.00000000
   3        -0.02075034
   4        -0.71924286
   5         0.00000000
   6        -0.00000000
   7        -0.00000000
   8         0.02075034
   9         0.71924286
  10        -0.00000000
Sym=     7a  
Ene=     0.0046
Spin= Beta
Occup=    0.00000
   1        -0.00000000
   2        -0.00000000
   3        -0.02075034
   4        -0.71924286
   5         0.00000000
   6        -0.00000000
   7        -0.00000000
   8         0.02075034
   9         0.71924286
  10        -0.00000000
Sym=     8a  
Ene=     0.0680
Spin= Alpha
Occup=    0.00000
   1         0.00473001
   2         0.12601799
   3         0.00000000
   4        -0.00000000
   5         0.75568514
   6        -0.00473001
   7        -0.12601799
   8         0.00000000
   9        -0.00000000
  10         0.75568514
Sym=     8a  
Ene=     0.0680
Spin= Beta
Occup=    0.00000
   1         0.00473001
   2         0.12601799
   3         0.00000000
   4        -0.00000000
   5         0.75568514
   6        -0.00473001
   7        -0.12601799
   8         0.00000000
   9        -0.00000000
  10         0.75568514
Sym=     9a  
Ene=     0.1093
Spin= Alpha
Occup=    0.00000
   1        -0.00000000
   2        -0.00000000
   3         0.69500548
   4        -0.02005108
   5        -0.00000000
   6        -0.00000000
   7         0.00000000
   8         0.69500548
   9        -0.02005108
  10        -0.00000000
Sym=     9a  
Ene=     0.1093
Spin= Beta
Occup=    0.00000
   1        -0.00000000
   2        -0.00000000
   3         0.69500548
   4        -0.02005108
   5        -0.00000000
   6        -0.00000000
   7         0.00000000
   8         0.69500548
   9        -0.02005108
  10        -0.00000000
Sym=    10a  
Ene=     0.1405
Spin= Alpha
Occup=    0.00000
   1         0.00000000
   2         0.00000000
   3        -0.71924286
   4         0.02075034
   5         0.00000000
   6         0.00000000
   7         0.00000000
   8         0.71924286
   9        -0.02075034
  10         0.00000000
Sym=    10a  
Ene=     0.1405
Spin= Beta
Occup=    0.00000
   1         0.00000000
   2         0.00000000
   3        -0.71924286
   4         0.02075034
   5         0.00000000
   6         0.00000000
   7         0.00000000
   8         0.71924286
   9        -0.02075034
  10         0.00000000
