[Molden Format]
[N_Atoms]
                     2
[Atoms] (AU)
C1          1      6           0.00000000      0.00000000      0.00000000
C2          2      6           0.00000000      0.00000000      5.29123315
[Charge] (Mulliken)
 -1.238839938411118E-004
  1.238839938064729E-004
[GTO] (AU)
   1
   s  14
  5.055750100E+04  1.128874000E-04
  7.524785600E+03  5.295373000E-04
  1.694327600E+03  2.450038300E-03
  4.728227900E+02  1.005398470E-02
  1.517107500E+02  3.545398060E-02
  5.391874600E+01  1.044071086E-01
  2.065931100E+01  2.412894918E-01
  8.383976000E+00  3.834225483E-01
  3.577015000E+00  3.078514393E-01
  1.547118000E+00  6.872442990E-02
  6.130130000E-01  2.224445000E-04
  2.460680000E-01  1.976748900E-03
  9.908700000E-02  2.057859400E-03
  3.468000000E-02  4.182020000E-04
   s  14
  5.055750100E+04 -2.507420000E-05
  7.524785600E+03 -1.175945000E-04
  1.694327600E+03 -5.456275000E-04
  4.728227900E+02 -2.245077100E-03
  1.517107500E+02 -8.043471800E-03
  5.391874600E+01 -2.442588710E-02
  2.065931100E+01 -6.136791180E-02
  8.383976000E+00 -1.177767835E-01
  3.577015000E+00 -1.550487783E-01
  1.547118000E+00 -1.933316860E-02
  6.130130000E-01  3.996930678E-01
  2.460680000E-01  5.589420949E-01
  9.908700000E-02  1.711195023E-01
  3.468000000E-02  7.456244600E-03
   p   9
  8.333315500E+01  1.344656000E-03
  1.955761100E+01  1.023555500E-02
  6.080365000E+00  4.520067100E-02
  2.179317000E+00  1.410756198E-01
  8.651500000E-01  3.047388085E-01
  3.619440000E-01  3.995281011E-01
  1.547400000E-01  2.719163432E-01
  6.542900000E-02  5.857669330E-02
  2.290000000E-02 -1.263813000E-04
 
   2
   s  14
  5.055750100E+04  1.128874000E-04
  7.524785600E+03  5.295373000E-04
  1.694327600E+03  2.450038300E-03
  4.728227900E+02  1.005398470E-02
  1.517107500E+02  3.545398060E-02
  5.391874600E+01  1.044071086E-01
  2.065931100E+01  2.412894918E-01
  8.383976000E+00  3.834225483E-01
  3.577015000E+00  3.078514393E-01
  1.547118000E+00  6.872442990E-02
  6.130130000E-01  2.224445000E-04
  2.460680000E-01  1.976748900E-03
  9.908700000E-02  2.057859400E-03
  3.468000000E-02  4.182020000E-04
   s  14
  5.055750100E+04 -2.507420000E-05
  7.524785600E+03 -1.175945000E-04
  1.694327600E+03 -5.456275000E-04
  4.728227900E+02 -2.245077100E-03
  1.517107500E+02 -8.043471800E-03
  5.391874600E+01 -2.442588710E-02
  2.065931100E+01 -6.136791180E-02
  8.383976000E+00 -1.177767835E-01
  3.577015000E+00 -1.550487783E-01
  1.547118000E+00 -1.933316860E-02
  6.130130000E-01  3.996930678E-01
  2.460680000E-01  5.589420949E-01
  9.908700000E-02  1.711195023E-01
  3.468000000E-02  7.456244600E-03
   p   9
  8.333315500E+01  1.344656000E-03
  1.955761100E+01  1.023555500E-02
  6.080365000E+00  4.520067100E-02
  2.179317000E+00  1.410756198E-01
  8.651500000E-01  3.047388085E-01
  3.619440000E-01  3.995281011E-01
  1.547400000E-01  2.719163432E-01
  6.542900000E-02  5.857669330E-02
  2.290000000E-02 -1.263813000E-04
 
[MO]
Sym=     1a  
Ene=   -11.2430
Spin= Alpha
Occup=    2.00000
   1        -0.99997995
   2         0.00240809
   3         0.00000000
   4         0.00000000
   5        -0.00006235
   6         0.00627058
   7         0.00020405
   8        -0.00000000
   9         0.00000000
  10        -0.00028958
Sym=     2a  
Ene=   -11.2410
Spin= Alpha
Occup=    2.00000
   1         0.00624573
   2         0.00026746
   3        -0.00000000
   4        -0.00000000
   5        -0.00054741
   6         0.99986552
   7        -0.01528895
   8         0.00000000
   9        -0.00000000
  10        -0.00000830
Sym=     3a  
Ene=    -0.6819
Spin= Alpha
Occup=    2.00000
   1         0.00234614
   2         0.99836905
   3        -0.00000000
   4         0.00000000
   5         0.00517969
   6        -0.00198537
   7        -0.00690187
   8         0.00000000
   9        -0.00000001
  10        -0.01935015
Sym=     4a  
Ene=    -0.3212
Spin= Alpha
Occup=    2.00000
   1         0.00000000
   2         0.00000000
   3         0.98252899
   4         0.17654675
   5        -0.00000002
   6         0.00000000
   7        -0.00000000
   8         0.03337815
   9         0.00590928
  10         0.00000000
Sym=     5a  
Ene=    -0.3207
Spin= Alpha
Occup=    2.00000
   1         0.00000000
   2         0.00000003
   3        -0.00593950
   4         0.03354757
   5        -0.00000002
   6         0.00000000
   7        -0.00000000
   8        -0.17654793
   9         0.98251685
  10         0.00000016
Sym=     6a  
Ene=    -0.6722
Spin= Alpha
Occup=    1.95388
   1        -0.00209323
   2        -0.04640267
   3         0.00000000
   4         0.00000000
   5         0.01966656
   6         0.01531379
   7         0.99925493
   8        -0.00000000
   9         0.00000001
  10        -0.00400426
Sym=     7a  
Ene=    -0.0001
Spin= Alpha
Occup=    0.04612
   1         0.00608642
   2         0.11129670
   3         0.00000000
   4         0.00000000
   5         0.01132132
   6        -0.00028384
   7         0.00019224
   8        -0.00000006
   9        -0.00000018
  10         1.00529297
Sym=     8a  
Ene=     0.1335
Spin= Alpha
Occup=    0.00000
   1        -0.00000000
   2        -0.00000000
   3        -0.17686533
   4         0.98424259
   5         0.00000004
   6        -0.00000000
   7        -0.00000000
   8         0.01219072
   9        -0.06721894
  10        -0.00000000
Sym=     9a  
Ene=     0.1339
Spin= Alpha
Occup=    0.00000
   1        -0.00000000
   2        -0.00000001
   3         0.06704988
   4         0.01216023
   5         0.00000040
   6        -0.00000000
   7        -0.00000004
   8        -0.98424776
   9        -0.17686961
  10        -0.00000004
Sym=    10a  
Ene=     0.1457
Spin= Alpha
Occup=    0.00000
   1        -0.00089863
   2        -0.01063829
   3        -0.00000000
   4         0.00000004
   5        -1.01146568
   6         0.00614155
   7         0.11228573
   8        -0.00000039
   9        -0.00000010
  10        -0.11225153
