   This run of MOLCAS is using the pymolcas driver

                             OPE
                             OPE          NMOL  CASOP  ENMOLC A   SO
                 OPE        NMOLC        AS  OP EN  MO LC     AS  OP
                OPENM       OL CA        SO  PE NM  OL CA     SOP EN
                OP EN      MO   LC       AS  OP ENMOL  CASO   PENMOL
                OP  EN     MO   LC       AS  OP EN     MO     LC ASO
               OP   E  NMOL  C  AS       OP  EN MO     LC     AS  OP
               OP  E   NMO   LC AS        OPEN  MO     LCASOP EN   M
               O  PEN   MO  LCA  SO
            OPE   NMO   L   CAS    OP
        OPENMOL  CASOP     ENMOL   CASOPE
     OPENMOLCA   SOPENMOLCASOPEN   MOLCASOPE
    OPENMOLCAS   OP           EN   MOL    CAS
    OPENMOLCAS       OP  ENM        O     LCA
    OPENMOLCAS    OPEN  MOLCASO     P  E  NMO
    OPENMOLCAS     OP               E  N  MOL
    OPENMOLCA   SO           PENM   O  L  CAS    OPEN    MO    LCAS
    OPENMOLCA   SOP           ENM   O  L  CAS   OP  EN  MOLC  AS   O
    OPENMOLCA   SOPE           NM      O  LCA   S      OP  EN MO
    OPENMOLC                AS         O  PEN   M      OL  CA  SOPE
    OPENMO        LCASOPE  NMOL        C  ASO   P      ENMOLC     AS
    OPE     NMO      LCA  SO     P     E   NM   OL  CA SO  PE N   MO
          OPENMOLCA            SOPE   NMO        LCAS  O    P  ENMO
     OPENMOLCASOPENMOLCASOPENMOLCASOPENMOLCA
        OPENMOLCASOPENMOLCASOPENMOLCASOPE
            OPENMOLCASOPENMOLCASOPENM
               OPENMOLCASOPENMOLCA        version: ea724fe96-dirty
                   OPENMOLCASO
                       OPE                tag:

 OpenMolcas is free software; you can redistribute it and/or modify it
 under the terms of the GNU Lesser General Public License version 2.1.
 OpenMolcas is distributed in the hope that it will be useful, but it
 is provided "as is" and without any express or implied warranties.
 For more details see the full text of the license in the file
 LICENSE or in <http://www.gnu.org/licenses/>.

                 Copyright (C) The OpenMolcas Authors
           For the author list and the recommended citation,
                   consult the file CONTRIBUTORS.md

           *************************************************
           * pymolcas version py2.28                       *
           *   build c4a6d18ded8cb6cad61d2372a9abd97c      *
           *   (after the EMIL interpreter by V. Veryazov) *
           *************************************************

configuration info
------------------
C Compiler ID: Intel
C flags: -std=gnu99
Fortran Compiler ID: Intel
Fortran flags: -fpp -i8 -r8 -heap-arrays
Definitions: _MOLCAS_;_I8_;_LINUX_
Parallel: OFF (GA=OFF)


   -------------------------------------------------------------------------------
  |
  |              Project: 3.85
  |       Submitted from: /home/grierjones/DDCASPT2/iron_oxo_DDCASPT2/cluster/3.85
  |         Scratch area: /tmp/3.85
  |      Save outputs to: /home/grierjones/DDCASPT2/iron_oxo_DDCASPT2/cluster/3.85
  |               Molcas: /home/grierjones/Test/build
  |
  | Scratch area is empty
  |
  |       MOLCAS_DRIVER = /usr/local/pymolcas
  | MOLCAS_KEEP_WORKDIR = NO
  |  MOLCAS_NEW_WORKDIR = YES
  |       MOLCAS_NPROCS = 1
  |        MOLCAS_PRINT = NORMAL
  |       MOLCAS_SOURCE = /home/grierjones/Test/build
  |    MOLCAS_STRUCTURE = 0
  |
   -------------------------------------------------------------------------------

++ ---------   Input file   ---------

&GATEWAY
coord=3.85.xyz
Basis = ANO-RCC-VDZP
Group = nosymm
Expert
End of Input

&SEWARD
End of Input

&SCF
UHF
charge
2
spin
5

>>> COPY $WorkDir/3.85.scf.h5 $CurrDir/

&RASSCF
Title= RASSCF
FileOrb
/home/grierjones/DDCASPT2/iron_oxo_DDCASPT2/cluster/3.83/3.83.RasOrb
NACTEL
10 0 0
RAS2
14
Symmetry
1
Spin
5
charge
2
orblisting
all
ITERation
300 200

>>> COPY $WorkDir/3.85.rasscf.h5 $CurrDir/

>>> COPY $WorkDir/GMJ_Fock_MO.csv $CurrDir/3.85.GMJ_Fock_MO.csv

>>> COPY $WorkDir/GMJ_PT2_Fock_MO.csv $CurrDir/3.85.GMJ_PT2_Fock_MO.csv

&MOTRA
Frozen=0
LUMORB

>>> COPY $WorkDir/GMJ_one_int_indx.csv $CurrDir/3.85.GMJ_one_int_indx.csv

>>> COPY $WorkDir/GMJ_one_int.csv $CurrDir/3.85.GMJ_one_int.csv

>>> COPY $WorkDir/GMJ_two_int_indx.csv $CurrDir/3.85.GMJ_two_int_indx.csv

>>> COPY $WorkDir/GMJ_two_int.csv $CurrDir/3.85.GMJ_two_int.csv

&CASPT2
Frozen
0
MAXITER
50

>>> FOREACH i IN (B,E,F,G,H)

  >>> FOREACH j IN (P,M)

    >>> IF (-FILE GMJ_e2_${i}_${j}.csv)

      >>> COPY $WorkDir/GMJ_RHS_${i}_${j}.csv $CurrDir/GMJ_RHS_${i}_${j}.csv

      >>> COPY $WorkDir/GMJ_IVECW_${i}_${j}.csv $CurrDir/GMJ_IVECW_${i}_${j}.csv

      >>> COPY $WorkDir/GMJ_IVECX_${i}_${j}.csv $CurrDir/GMJ_IVECX_${i}_${j}.csv

      >>> COPY $WorkDir/GMJ_IVECC2_${i}_${j}.csv $CurrDir/GMJ_IVECC2_${i}_${j}.csv

      >>> COPY $WorkDir/GMJ_e2_${i}_${j}.csv $CurrDir/GMJ_e2_${i}_${j}.csv

    >>> END IF

  >>> END FOREACH

>>> END FOREACH

>>> FOREACH i IN (A,C,D)

  >>> IF (-FILE GMJ_e2_$i.csv)

    >>> COPY $WorkDir/GMJ_RHS_$i.csv $CurrDir/GMJ_RHS_$i.csv

    >>> COPY $WorkDir/GMJ_IVECW_$i.csv $CurrDir/GMJ_IVECW_$i.csv

    >>> COPY $WorkDir/GMJ_IVECX_$i.csv $CurrDir/GMJ_IVECX_$i.csv

    >>> COPY $WorkDir/GMJ_IVECC2_$i.csv $CurrDir/GMJ_IVECC2_$i.csv

    >>> COPY $WorkDir/GMJ_e2_$i.csv $CurrDir/GMJ_e2_$i.csv

  >>> END IF

>>> END FOREACH

-- ----------------------------------

--- Start Module: gateway at Tue Dec 17 22:35:11 2024 ---
 
()()()()()()()()()()()()()()()()()()()()()()()()()()()()()()()()()()()()()()()()()()()()()()()()()()

                                              &GATEWAY

                                   only a single process is used
                       available to each process: 2.0 GB of memory, 1 thread?
()()()()()()()()()()()()()()()()()()()()()()()()()()()()()()()()()()()()()()()()()()()()()()()()()()
 
 ###############################################################################
 ###############################################################################
 ###                                                                         ###
 ###                                                                         ###
 ###                                                                         ###
 ###    WARNING: EXPERT option is ON!                                        ###
 ###                                                                         ###
 ###                                                                         ###
 ###############################################################################
 ###############################################################################
 
++    Symmetry information:
      ---------------------
 
                    Character Table for C1 
 
                             E  
                    a        1  x, y, xy, Rz, z, xz, Ry, yz, Rx, I
--
 
 
++    Basis set information:
      ----------------------
 
 
      Basis set label: O.ANO-RCC...3S2P1D.
 
      Electronic valence basis set:
      ------------------
      Associated Effective Charge   8.000000 au
      Associated Actual Charge      8.000000 au
      Nuclear Model: Point charge
 
      Shell  nPrim  nBasis  Cartesian Spherical Contaminant
         s      14       3        X                  
         p       9       2        X                  
         d       4       1                 X         
 
 
      Basis set label: FE.ANO-RCC...5S4P2D1F.
 
      Electronic valence basis set:
      ------------------
      Associated Effective Charge  26.000000 au
      Associated Actual Charge     26.000000 au
      Nuclear Model: Point charge
 
      Shell  nPrim  nBasis  Cartesian Spherical Contaminant
         s      21       5        X                  
         p      15       4        X                  
         d      10       2                 X         
         f       6       1                 X         
--
 
 
++    Molecular structure info:
      -------------------------
 
                    ************************************************ 
                    **** Cartesian Coordinates / Bohr, Angstrom **** 
                    ************************************************ 
 
     Center  Label                x              y              z                     x              y              z
        1      O1               0.000000       0.000000       5.148068              0.000000       0.000000       2.724240
        2      FE2              0.000000       0.000000      -2.124506              0.000000       0.000000      -1.124240
--
 
 
            Nuclear Potential Energy             28.60060591 au
 
 ###############################################################################
 ###############################################################################
 ###                                                                         ###
 ###                                                                         ###
 ###    There were warnings during the execution                             ###
 ###    Please, check the output with care!                                  ###
 ###                                                                         ###
 ###                                                                         ###
 ###############################################################################
 ###############################################################################
--- Stop Module: gateway at Tue Dec 17 22:35:11 2024 /rc=_RC_ALL_IS_WELL_ ---
*** files: xmldump
    saved to directory /home/grierjones/DDCASPT2/iron_oxo_DDCASPT2/cluster/3.85

--- Start Module: seward at Tue Dec 17 22:35:11 2024 ---
 
()()()()()()()()()()()()()()()()()()()()()()()()()()()()()()()()()()()()()()()()()()()()()()()()()()

                                              &SEWARD

                                   only a single process is used
                       available to each process: 2.0 GB of memory, 1 thread?
()()()()()()()()()()()()()()()()()()()()()()()()()()()()()()()()()()()()()()()()()()()()()()()()()()
 
 ###############################################################################
 ###############################################################################
 ###                                                                         ###
 ###                                                                         ###
 ###                                                                         ###
 ###    WARNING: EXPERT option is ON!                                        ###
 ###                                                                         ###
 ###                                                                         ###
 ###############################################################################
 ###############################################################################
               SEWARD will generate:
                  Multipole Moment integrals up to order  2
                  Kinetic Energy integrals
                  Nuclear Attraction integrals (point charge)
                  One-Electron Hamiltonian integrals
                  Velocity integrals
                  Relativistic Douglas-Kroll-Hess integrals:
                    - Parametrization         : EXP
                    - DKH order of Hamiltonian: 2
                    - DKH order of Properties : 0
                         - multipole moment operators
                         - electric potential operators
                         - contact operators
                  Atomic mean-field integrals
                  Two-Electron Repulsion integrals
 
                   Integrals are discarded if absolute value <: 0.10E-13
                   Integral cutoff threshold is set to       <: 0.10E-15
 
            Nuclear Potential Energy             28.60060591 au
 
 
      Basis set specifications :
      Symmetry species         a  
      Basis functions           48
 
 
  Input file to MOLDEN was generated!
 
 ###############################################################################
 ###############################################################################
 ###                                                                         ###
 ###                                                                         ###
 ###    There were warnings during the execution                             ###
 ###    Please, check the output with care!                                  ###
 ###                                                                         ###
 ###                                                                         ###
 ###############################################################################
 ###############################################################################
--- Stop Module: seward at Tue Dec 17 22:35:12 2024 /rc=_RC_ALL_IS_WELL_ ---
*** files: 3.85.GssOrb 3.85.guessorb.h5 3.85.guessorb.molden xmldump
    saved to directory /home/grierjones/DDCASPT2/iron_oxo_DDCASPT2/cluster/3.85

*** symbolic link created: INPORB -> 3.85.GssOrb
--- Start Module: scf at Tue Dec 17 22:35:12 2024 ---
 
()()()()()()()()()()()()()()()()()()()()()()()()()()()()()()()()()()()()()()()()()()()()()()()()()()

                                                &SCF

                                   only a single process is used
                       available to each process: 2.0 GB of memory, 1 thread?
()()()()()()()()()()()()()()()()()()()()()()()()()()()()()()()()()()()()()()()()()()()()()()()()()()
 
 *** Possible bug in opening file
 *** isFreeUnit resets the unit number
++    Input section:
      --------------
 
      Header of the integral files:
      
       Integrals generated by seward 4.2.0  , Tue Dec 17 22:35:11 2024
 
 
      Cartesian coordinates in Angstrom:
      -----------------------------------------------------
      No.  Label        X            Y            Z        
      -----------------------------------------------------
       1   O1         0.00000000   0.00000000   2.72424000
       2   FE2        0.00000000   0.00000000  -1.12424000
      -----------------------------------------------------
      Nuclear repulsion energy =   28.60060591
--
 
++    Orbital specifications:
      -----------------------
 
      Symmetry species               1
                                     a
      Frozen orbitals                0
      Start temperature = 0.500
      End temperature   = 0.010
      Temperature Factor= 0.460
      Deleted orbitals               0
      Total number of orbitals      48
      Number of basis functions     48
--
 
      Molecular charge                           2.000
 
++    Optimization specifications:
      ----------------------------
 
      SCF Algorithm: Conventional USCF
      D(i)-D(i-1) density differences are used
      Number of density matrices in core                5
      Maximum number of NDDO SCF iterations           400
      Maximum number of HF SCF iterations             400
      Threshold for SCF energy change            0.10E-08
      Threshold for density matrix               0.10E-03
      Threshold for Fock matrix                  0.15E-03
      Threshold for linear dependence            0.10E-08
      Threshold at which DIIS is turned on       0.15E+00
      Threshold at which QNR/C2DIIS is turned on 0.75E-01
      Threshold for Norm(delta) (QNR/C2DIIS)     0.20E-04
      DIIS extrapolation of the SCF procedure
      All orbitals punched on: UHFORB
--
 
      Input vectors read from INPORB
      Orbital file label: *Guess orbitals
 
 
++ Convergence information
                               UHF SCF        iterations: Energy and convergence statistics
 
Iter     Tot. SCF        One-elec.       Two-elec.     Energy      Max Dij or  Max Fij      DNorm      TNorm      AccCon     Time
         Energy          Energy          Energy        Change      Delta Norm                                                in Sec.
 
 The total and one-electron energies are shifted by a value of      1000. a.u.
 
   1  -343.265973871  -889.815526081   517.948946304   0.00E+00    0.16E+00*   0.38E+00*    0.75E+01   0.18E+03   None         0.
   2  -343.484812102  -886.382639830   514.297221821  -0.22E+00*   0.92E-01*   0.19E+00*    0.10E+01   0.18E+03   EDIIS        0.
   3  -341.930444456  -931.801106474   561.270056111   0.16E+01*   0.70E-01*   0.18E+00*    0.17E+01   0.19E+03   EDIIS        0.
   4  -342.731354661  -872.093305192   500.761344625  -0.80E+00*   0.12E+00*   0.10E+00*    0.16E+01   0.18E+03   EDIIS        0.
   5  -344.313811883  -902.528616926   529.614199137  -0.16E+01*   0.15E+00*   0.67E-01*    0.77E+00   0.18E+03   EDIIS        0.
   6  -344.432203249  -881.667888277   508.635079122  -0.12E+00*   0.39E+00*   0.25E+00*    0.18E+01   0.18E+03   EDIIS        0.
   7  -341.137930197  -926.228009666   556.489473562   0.33E+01*   0.90E-01*   0.64E-01*    0.30E+01   0.19E+03   EDIIS        0.
   8  -345.144113868  -899.215593421   525.470873646  -0.40E+01*   0.15E+00*   0.14E+00*    0.15E+01   0.18E+03   EDIIS        0.
   9  -345.183123927  -895.369189232   521.585459399  -0.39E-01*   0.81E-01*   0.68E-01*    0.48E+00   0.18E+03   EDIIS        0.
  10  -345.192402625  -900.115701499   526.322692967  -0.93E-02*   0.14E+00*   0.17E+00*    0.18E+01   0.18E+03   EDIIS        0.
  11  -345.265469024  -898.815854502   524.949779571  -0.73E-01*   0.10E+00*   0.59E-01*    0.78E+00   0.18E+03   EDIIS        0.
  12  -345.274424880  -899.270805572   525.395774785  -0.90E-02*   0.56E-01*   0.23E-01*    0.23E+00   0.18E+03   EDIIS        0.
 
       Fermi aufbau procedure completed!
      nOcc(alpha)=   18
      nOcc(beta) =   14
 
  13  -345.275171651  -899.202823276   525.327045718  -0.75E-03*   0.35E-01*   0.68E-02*    0.83E-01   0.18E+03   EDIIS        0.
  14  -345.275418263  -899.243100070   525.367075900  -0.25E-03*   0.22E-01*   0.43E-02*    0.50E-01   0.18E+03   EDIIS        0.
  15  -345.275514475  -899.216249914   525.340129532  -0.96E-04*   0.14E-01*   0.27E-02*    0.31E-01   0.18E+03   EDIIS        0.
  16  -345.275553539  -899.232350453   525.356191008  -0.39E-04*   0.89E-02*   0.17E-02*    0.20E-01   0.18E+03   EDIIS        0.
  17  -345.275569571  -899.220499978   525.344324500  -0.16E-04*   0.55E-03*   0.29E-02*    0.13E-01   0.18E+03   c2DIIS       0.
  18  -345.275580463  -899.238167653   525.361981283  -0.11E-04*   0.11E-02*   0.35E-03*    0.23E-02   0.18E+03   QNRc2DIIS    0.
  19  -345.275580663  -899.213850100   525.337663531  -0.20E-06*   0.41E-03*   0.23E-03*    0.15E-02   0.18E+03   QNRc2DIIS    0.
  20  -345.275580796  -899.223138622   525.346951919  -0.13E-06*   0.53E-03*   0.34E-04     0.58E-03   0.18E+03   QNRc2DIIS    0.
  21  -345.275580809  -899.223350497   525.347163782  -0.12E-07*   0.26E-04*   0.32E-05     0.73E-03   0.18E+03   QNRc2DIIS    0.
  22  -345.275580809  -899.223364229   525.347177513  -0.10E-09    0.12E-05    0.66E-06     0.36E-04   0.18E+03   QNRc2DIIS    0.
 
       Convergence after 22 Macro Iterations
--
 
 *****************************************************************************************************************************
 *                                                                                                                           *
 *                                             SCF/KS-DFT Program, Final results                                             *
 *                                                                                                                           *
 *                                                                                                                           *
 *                                                                                                                           *
 *                                                       Final Results                                                       *
 *                                                                                                                           *
 *****************************************************************************************************************************
 
::    Total SCF energy                              -1345.2755808089
      One-electron energy                           -1899.2233642288
      Two-electron energy                             525.3471775134
      Nuclear repulsion energy                         28.6006059066
      Kinetic energy (interpolated)                  1399.9155698502
      Virial theorem                                    0.9609690826
      Total spin, S(S+1)                                8.0191480492
      Total spin, S                                     2.3756126389
      Max non-diagonal density matrix element           0.0000006778
      Max non-diagonal Fock matrix element              0.0000001625
 
 
      All orbitals with orbital energies smaller than  E(LUMO)+0.5 are printed
 
++    Molecular orbitals:
      -------------------
 
      Title: UHF orbitals (alpha)

      Molecular orbitals for symmetry species 1: a  
 
          Orbital            1         2         3         4         5         6         7         8         9        10    
          Energy         -264.1001  -32.9251  -28.0065  -28.0065  -27.9731  -21.5211   -4.8715   -3.4481   -3.4481   -3.3744
          Occ. No.          1.0000    1.0000    1.0000    1.0000    1.0000    1.0000    1.0000    1.0000    1.0000    1.0000
 
        1 O1     1s        -0.0000   -0.0000   -0.0000    0.0000   -0.0000    1.0000   -0.0000   -0.0000   -0.0000    0.0000
        2 O1     2s        -0.0000   -0.0000   -0.0000   -0.0000   -0.0000    0.0003   -0.0002   -0.0000   -0.0000    0.0002
        3 O1     3s        -0.0000   -0.0001   -0.0000   -0.0000   -0.0001   -0.0010   -0.0003   -0.0000   -0.0000    0.0003
        4 O1     2px       -0.0000   -0.0000   -0.0000    0.0000    0.0000    0.0000    0.0000    0.0000    0.0000   -0.0000
        5 O1     3px        0.0000    0.0000   -0.0001    0.0000   -0.0000   -0.0000   -0.0000    0.0002    0.0000    0.0000
        6 O1     2py       -0.0000    0.0000   -0.0000   -0.0000   -0.0000    0.0000   -0.0000   -0.0000    0.0000    0.0000
        7 O1     3py       -0.0000    0.0000   -0.0000   -0.0001   -0.0000   -0.0000    0.0000   -0.0000    0.0002    0.0000
        8 O1     2pz       -0.0000    0.0000   -0.0000    0.0000    0.0000   -0.0000    0.0001    0.0000   -0.0000   -0.0002
        9 O1     3pz       -0.0000    0.0001    0.0000    0.0000    0.0001    0.0001    0.0003   -0.0000   -0.0000   -0.0005
       10 O1     3d2-       0.0000   -0.0000    0.0000    0.0000    0.0000   -0.0000   -0.0000   -0.0000   -0.0000   -0.0000
       11 O1     3d1-      -0.0000    0.0000    0.0000    0.0000    0.0000   -0.0000    0.0000    0.0000   -0.0000   -0.0000
       12 O1     3d0        0.0000   -0.0000   -0.0000    0.0000   -0.0000   -0.0015   -0.0000    0.0000    0.0000    0.0001
       13 O1     3d1+       0.0000    0.0000    0.0000   -0.0000    0.0000   -0.0000   -0.0000   -0.0000   -0.0000   -0.0000
       14 O1     3d2+       0.0000   -0.0000   -0.0000    0.0000   -0.0000    0.0000   -0.0000    0.0000    0.0000   -0.0000
       15 FE2    1s         1.0000   -0.0000    0.0000    0.0000    0.0000    0.0000    0.0000    0.0000   -0.0000   -0.0000
       16 FE2    2s         0.0000    1.0000    0.0000    0.0000    0.0004    0.0000   -0.0030   -0.0000   -0.0000   -0.0000
       17 FE2    3s        -0.0000    0.0030    0.0000    0.0000    0.0000    0.0000    0.9999    0.0000    0.0000    0.0028
       18 FE2    4s         0.0000   -0.0002    0.0000   -0.0000    0.0000    0.0000    0.0007   -0.0000   -0.0000   -0.0005
       19 FE2    5s        -0.0000    0.0003    0.0000    0.0000    0.0000    0.0000    0.0007    0.0000    0.0000    0.0002
       20 FE2    2px       -0.0000   -0.0000    0.9991   -0.0430   -0.0000    0.0000    0.0000   -0.0029   -0.0000   -0.0000
       21 FE2    3px       -0.0000   -0.0000    0.0029   -0.0001    0.0000    0.0000   -0.0000    0.9999    0.0071    0.0000
       22 FE2    4px       -0.0000    0.0000   -0.0004    0.0000   -0.0000    0.0000   -0.0000   -0.0087   -0.0001   -0.0000
       23 FE2    5px        0.0000   -0.0000    0.0011   -0.0000    0.0000    0.0000    0.0000    0.0051    0.0000    0.0000
       24 FE2    2py       -0.0000   -0.0000    0.0430    0.9991   -0.0000   -0.0000    0.0000    0.0000   -0.0029   -0.0000
       25 FE2    3py        0.0000   -0.0000    0.0001    0.0029   -0.0000    0.0000   -0.0000   -0.0071    0.9999    0.0000
       26 FE2    4py       -0.0000    0.0000   -0.0000   -0.0004   -0.0000    0.0000   -0.0000    0.0001   -0.0087   -0.0000
       27 FE2    5py        0.0000   -0.0000    0.0000    0.0011    0.0000    0.0000    0.0000   -0.0000    0.0051    0.0000
       28 FE2    2pz       -0.0000   -0.0004    0.0000    0.0000    1.0000   -0.0000    0.0000    0.0000   -0.0000   -0.0024
       29 FE2    3pz        0.0000   -0.0000    0.0000    0.0000    0.0024    0.0000   -0.0028   -0.0000   -0.0000    0.9999
       30 FE2    4pz       -0.0000    0.0000   -0.0000   -0.0000   -0.0003    0.0001    0.0001   -0.0000   -0.0000   -0.0061
       31 FE2    5pz        0.0000    0.0000    0.0000    0.0000    0.0008    0.0000    0.0003    0.0000    0.0000    0.0030
       32 FE2    3d2-      -0.0000    0.0000   -0.0000   -0.0000   -0.0000    0.0000   -0.0000   -0.0000   -0.0000   -0.0000
       33 FE2    4d2-       0.0000   -0.0000    0.0000    0.0000    0.0000   -0.0000    0.0000   -0.0000   -0.0000    0.0000
       34 FE2    3d1-       0.0000    0.0000   -0.0000   -0.0000   -0.0000    0.0000   -0.0000    0.0000   -0.0015   -0.0000
       35 FE2    4d1-       0.0000   -0.0000    0.0000    0.0000    0.0000    0.0000   -0.0000   -0.0000    0.0001   -0.0000
       36 FE2    3d0       -0.0000   -0.0005    0.0000    0.0000   -0.0000    0.0000   -0.0128    0.0000    0.0000   -0.0017
       37 FE2    4d0        0.0000    0.0004   -0.0000   -0.0000    0.0000    0.0001    0.0047    0.0000    0.0000    0.0000
       38 FE2    3d1+       0.0000    0.0000   -0.0000    0.0000   -0.0000    0.0000   -0.0000   -0.0015   -0.0000   -0.0000
       39 FE2    4d1+      -0.0000   -0.0000    0.0000   -0.0000    0.0000    0.0000   -0.0000    0.0001    0.0000   -0.0000
       40 FE2    3d2+       0.0000    0.0000   -0.0000    0.0000    0.0000    0.0000    0.0000   -0.0000    0.0000   -0.0000
       41 FE2    4d2+      -0.0000   -0.0000    0.0000   -0.0000   -0.0000   -0.0000   -0.0000   -0.0000    0.0000    0.0000
       42 FE2    4f3-      -0.0000   -0.0000    0.0000    0.0000    0.0000   -0.0000   -0.0000   -0.0000    0.0000    0.0000
       43 FE2    4f2-      -0.0000    0.0000    0.0000    0.0000    0.0000   -0.0000    0.0000   -0.0000   -0.0000   -0.0000
       44 FE2    4f1-      -0.0000    0.0000   -0.0000   -0.0001    0.0000    0.0000    0.0000    0.0000   -0.0031   -0.0000
       45 FE2    4f0        0.0000    0.0000   -0.0000   -0.0000   -0.0003    0.0000    0.0001    0.0000    0.0000   -0.0101
       46 FE2    4f1+       0.0000    0.0000   -0.0001    0.0000    0.0000    0.0000    0.0000   -0.0031   -0.0000   -0.0000
       47 FE2    4f2+       0.0000   -0.0000    0.0000   -0.0000    0.0000    0.0000   -0.0000   -0.0000    0.0000    0.0000
       48 FE2    4f3+      -0.0000    0.0000    0.0000   -0.0000    0.0000   -0.0000    0.0000    0.0000    0.0000   -0.0000
 
          Orbital           11        12        13        14        15        16        17        18        19        20    
          Energy           -2.0331   -1.4184   -1.4184   -1.1542   -1.1542   -1.1242   -1.1242   -1.0660   -0.5794   -0.3982
          Occ. No.          1.0000    1.0000    1.0000    1.0000    1.0000    1.0000    1.0000    1.0000    0.0000    0.0000
 
        1 O1     1s        -0.0004   -0.0000    0.0000    0.0000    0.0000    0.0000    0.0000   -0.0003    0.0001   -0.0029
        2 O1     2s         0.9966   -0.0000    0.0000    0.0000    0.0000    0.0000    0.0000   -0.0042    0.0103   -0.0304
        3 O1     3s        -0.0705   -0.0000    0.0000    0.0000   -0.0000    0.0000    0.0000   -0.0019   -0.0088    0.0090
        4 O1     2px        0.0000    0.0044   -0.9896    0.0000    0.0000   -0.0017    0.0000   -0.0000    0.0000    0.0000
        5 O1     3px       -0.0000   -0.0006    0.1433    0.0000    0.0000   -0.0017    0.0000   -0.0000    0.0000    0.0000
        6 O1     2py        0.0000    0.9896    0.0044   -0.0000    0.0000   -0.0000   -0.0017   -0.0000    0.0000    0.0000
        7 O1     3py       -0.0000   -0.1433   -0.0006   -0.0000    0.0000   -0.0000   -0.0017   -0.0000    0.0000    0.0000
        8 O1     2pz       -0.0105   -0.0000    0.0000   -0.0000    0.0000    0.0000    0.0000   -0.0003    0.9911    0.1008
        9 O1     3pz       -0.0013    0.0000   -0.0000   -0.0000   -0.0000   -0.0000   -0.0000    0.0040    0.1069   -0.0014
       10 O1     3d2-      -0.0000    0.0000   -0.0000    0.0000   -0.0000   -0.0000   -0.0000   -0.0000   -0.0000    0.0000
       11 O1     3d1-      -0.0000   -0.0030   -0.0000    0.0000   -0.0000    0.0000    0.0001    0.0000    0.0000    0.0000
       12 O1     3d0       -0.0506   -0.0000    0.0000    0.0000   -0.0000    0.0000    0.0000   -0.0000   -0.0050    0.0030
       13 O1     3d1+      -0.0000   -0.0000    0.0030   -0.0000   -0.0000    0.0001   -0.0000    0.0000    0.0000    0.0000
       14 O1     3d2+       0.0000   -0.0000   -0.0000   -0.0000   -0.0000   -0.0000    0.0000   -0.0000   -0.0000    0.0000
       15 FE2    1s        -0.0000    0.0000   -0.0000   -0.0000    0.0000   -0.0000   -0.0000    0.0000    0.0001    0.0000
       16 FE2    2s        -0.0000    0.0000   -0.0000   -0.0000   -0.0000   -0.0000   -0.0000    0.0005    0.0010    0.0003
       17 FE2    3s        -0.0000    0.0000   -0.0000   -0.0000   -0.0000    0.0000    0.0000    0.0132    0.0056   -0.0003
       18 FE2    4s        -0.0011    0.0000   -0.0000    0.0000    0.0000   -0.0000   -0.0000    0.0030   -0.0198    0.9960
       19 FE2    5s        -0.0020    0.0000   -0.0000   -0.0000   -0.0000    0.0000    0.0000    0.0021    0.0057   -0.0746
       20 FE2    2px        0.0000    0.0000   -0.0000    0.0000    0.0000    0.0000   -0.0000   -0.0000   -0.0000   -0.0000
       21 FE2    3px        0.0000    0.0000   -0.0001    0.0000    0.0000    0.0015   -0.0000   -0.0000   -0.0000    0.0000
       22 FE2    4px        0.0000    0.0000   -0.0021   -0.0000   -0.0000   -0.0007    0.0000    0.0000    0.0000   -0.0000
       23 FE2    5px        0.0000    0.0000   -0.0007    0.0000    0.0000    0.0012   -0.0000   -0.0000    0.0000   -0.0000
       24 FE2    2py        0.0000    0.0000    0.0000   -0.0000    0.0000    0.0000    0.0000   -0.0000   -0.0000   -0.0000
       25 FE2    3py        0.0000    0.0001    0.0000   -0.0000    0.0000    0.0000    0.0015   -0.0000   -0.0000    0.0000
       26 FE2    4py        0.0000    0.0021    0.0000    0.0000   -0.0000   -0.0000   -0.0007    0.0000    0.0000   -0.0000
       27 FE2    5py        0.0000    0.0007    0.0000   -0.0000    0.0000    0.0000    0.0012   -0.0000    0.0000   -0.0000
       28 FE2    2pz       -0.0000    0.0000    0.0000   -0.0000    0.0000    0.0000    0.0000    0.0000    0.0002    0.0000
       29 FE2    3pz       -0.0001    0.0000   -0.0000   -0.0000    0.0000    0.0000    0.0000    0.0017    0.0037    0.0008
       30 FE2    4pz       -0.0014    0.0000   -0.0000   -0.0000   -0.0000   -0.0000   -0.0000    0.0029   -0.0133    0.0478
       31 FE2    5pz       -0.0008    0.0000   -0.0000   -0.0000   -0.0000    0.0000    0.0000    0.0021   -0.0009    0.0091
       32 FE2    3d2-       0.0000   -0.0000    0.0000   -0.0170    0.9974    0.0000    0.0000   -0.0000   -0.0000   -0.0000
       33 FE2    4d2-      -0.0000   -0.0000    0.0000    0.0012   -0.0698   -0.0000   -0.0000    0.0000   -0.0000   -0.0000
       34 FE2    3d1-       0.0000    0.0008    0.0000    0.0000   -0.0000    0.0045    0.9981    0.0000   -0.0000    0.0000
       35 FE2    4d1-       0.0000    0.0008    0.0000   -0.0000    0.0000   -0.0003   -0.0614   -0.0000    0.0000   -0.0000
       36 FE2    3d0       -0.0000    0.0000   -0.0000   -0.0000   -0.0000   -0.0000   -0.0000    0.9990    0.0123   -0.0012
       37 FE2    4d0       -0.0007    0.0000   -0.0000    0.0000    0.0000   -0.0000   -0.0000   -0.0446   -0.0030   -0.0062
       38 FE2    3d1+       0.0000    0.0000   -0.0008   -0.0000   -0.0000    0.9981   -0.0045    0.0000   -0.0000    0.0000
       39 FE2    4d1+       0.0000    0.0000   -0.0008    0.0000    0.0000   -0.0614    0.0003   -0.0000    0.0000   -0.0000
       40 FE2    3d2+       0.0000    0.0000    0.0000    0.9974    0.0170    0.0000   -0.0000    0.0000    0.0000   -0.0000
       41 FE2    4d2+       0.0000    0.0000    0.0000   -0.0698   -0.0012   -0.0000    0.0000   -0.0000   -0.0000    0.0000
       42 FE2    4f3-       0.0000   -0.0000    0.0000   -0.0000   -0.0000    0.0000   -0.0000    0.0000    0.0000    0.0000
       43 FE2    4f2-       0.0000   -0.0000    0.0000    0.0000   -0.0009   -0.0000   -0.0000   -0.0000    0.0000    0.0000
       44 FE2    4f1-       0.0000    0.0000    0.0000   -0.0000    0.0000   -0.0000   -0.0011   -0.0000    0.0000   -0.0000
       45 FE2    4f0       -0.0000    0.0000   -0.0000    0.0000    0.0000    0.0000    0.0000   -0.0011   -0.0003    0.0002
       46 FE2    4f1+       0.0000    0.0000   -0.0000    0.0000    0.0000   -0.0011    0.0000   -0.0000    0.0000   -0.0000
       47 FE2    4f2+      -0.0000    0.0000    0.0000   -0.0009   -0.0000   -0.0000    0.0000   -0.0000   -0.0000    0.0000
       48 FE2    4f3+       0.0000    0.0000   -0.0000   -0.0000    0.0000    0.0000    0.0000   -0.0000   -0.0000   -0.0000
 
          Orbital           21        22        23        24    
          Energy           -0.2448   -0.2435   -0.2435   -0.1475
          Occ. No.          0.0000    0.0000    0.0000    0.0000
 
        1 O1     1s        -0.0067   -0.0000   -0.0000   -0.0099
        2 O1     2s        -0.0656   -0.0000   -0.0000   -0.0886
        3 O1     3s         0.0412    0.0000    0.0000    0.0330
        4 O1     2px        0.0000   -0.0039   -0.0000    0.0000
        5 O1     3px       -0.0000    0.0510    0.0001   -0.0000
        6 O1     2py        0.0000    0.0000   -0.0039    0.0000
        7 O1     3py       -0.0000   -0.0001    0.0510   -0.0000
        8 O1     2pz        0.1279    0.0000    0.0000    0.0495
        9 O1     3pz       -0.0410   -0.0000   -0.0000    0.0254
       10 O1     3d2-       0.0000   -0.0000   -0.0000    0.0000
       11 O1     3d1-       0.0000    0.0000   -0.0031    0.0000
       12 O1     3d0        0.0075    0.0000    0.0000   -0.0002
       13 O1     3d1+       0.0000   -0.0031   -0.0000    0.0000
       14 O1     3d2+      -0.0000   -0.0000    0.0000   -0.0000
       15 FE2    1s        -0.0000   -0.0000   -0.0000    0.0000
       16 FE2    2s        -0.0002   -0.0000   -0.0000   -0.0001
       17 FE2    3s        -0.0009   -0.0000   -0.0000   -0.0000
       18 FE2    4s        -0.0479   -0.0000   -0.0000    0.0874
       19 FE2    5s         0.1245    0.0000    0.0000    0.9918
       20 FE2    2px       -0.0000    0.0003    0.0000    0.0000
       21 FE2    3px       -0.0000    0.0080    0.0000   -0.0000
       22 FE2    4px       -0.0000    0.9893    0.0025   -0.0000
       23 FE2    5px       -0.0000    0.0926    0.0002   -0.0000
       24 FE2    2py       -0.0000   -0.0000    0.0003    0.0000
       25 FE2    3py       -0.0000   -0.0000    0.0080   -0.0000
       26 FE2    4py       -0.0000   -0.0025    0.9893   -0.0000
       27 FE2    5py       -0.0000   -0.0002    0.0926   -0.0000
       28 FE2    2pz        0.0002    0.0000    0.0000   -0.0000
       29 FE2    3pz        0.0050    0.0000    0.0000   -0.0006
       30 FE2    4pz        0.9728    0.0000    0.0000   -0.1197
       31 FE2    5pz        0.0988    0.0000    0.0000   -0.0079
       32 FE2    3d2-       0.0000    0.0000    0.0000   -0.0000
       33 FE2    4d2-       0.0000   -0.0000   -0.0000    0.0000
       34 FE2    3d1-       0.0000   -0.0000    0.0006   -0.0000
       35 FE2    4d1-      -0.0000   -0.0000    0.0056    0.0000
       36 FE2    3d0       -0.0013   -0.0000   -0.0000    0.0007
       37 FE2    4d0        0.0109    0.0000    0.0000    0.0144
       38 FE2    3d1+       0.0000    0.0006    0.0000   -0.0000
       39 FE2    4d1+      -0.0000    0.0056    0.0000    0.0000
       40 FE2    3d2+       0.0000    0.0000   -0.0000    0.0000
       41 FE2    4d2+      -0.0000   -0.0000    0.0000   -0.0000
       42 FE2    4f3-       0.0000   -0.0000    0.0000   -0.0000
       43 FE2    4f2-      -0.0000   -0.0000   -0.0000    0.0000
       44 FE2    4f1-      -0.0000   -0.0000    0.0001    0.0000
       45 FE2    4f0        0.0005    0.0000    0.0000   -0.0001
       46 FE2    4f1+      -0.0000    0.0001    0.0000    0.0000
       47 FE2    4f2+       0.0000   -0.0000    0.0000   -0.0000
       48 FE2    4f3+       0.0000    0.0000    0.0000    0.0000
--
 
 
  Input file to MOLDEN was generated!
 
 
++    Static properties:
      ------------------
 
 
      LoProp Charges per center
 

                   O1       FE2   
      Nuclear      8.0000  26.0000
      Electronic  -7.0002 -24.9998
 
      Total        0.9998   1.0002
--
 
 
      All orbitals with orbital energies smaller than  E(LUMO)+0.5 are printed
 
++    Molecular orbitals:
      -------------------
 
      Title: UHF orbitals (beta)

      Molecular orbitals for symmetry species 1: a  
 
          Orbital            1         2         3         4         5         6         7         8         9        10    
          Energy         -264.1008  -32.8044  -27.8720  -27.8720  -27.8716  -21.4742   -4.5311   -3.0359   -2.9845   -2.9845
          Occ. No.          1.0000    1.0000    1.0000    1.0000    1.0000    1.0000    1.0000    1.0000    1.0000    1.0000
 
        1 O1     1s        -0.0000    0.0000    0.0000   -0.0000    0.0000    1.0000    0.0000   -0.0000   -0.0000   -0.0000
        2 O1     2s        -0.0000    0.0000    0.0000   -0.0000    0.0000   -0.0019    0.0000   -0.0001    0.0000    0.0000
        3 O1     3s        -0.0000    0.0000    0.0000   -0.0000    0.0001    0.0002    0.0000   -0.0001    0.0000    0.0000
        4 O1     2px       -0.0000   -0.0000    0.0000    0.0000   -0.0000    0.0000    0.0000    0.0000   -0.0000    0.0000
        5 O1     3px        0.0000    0.0000    0.0000    0.0000   -0.0000   -0.0000   -0.0000    0.0000   -0.0000    0.0001
        6 O1     2py       -0.0000   -0.0000    0.0000   -0.0000   -0.0000    0.0000    0.0000    0.0000    0.0000    0.0000
        7 O1     3py       -0.0000    0.0000    0.0000   -0.0000   -0.0000   -0.0000   -0.0000    0.0000    0.0001    0.0000
        8 O1     2pz       -0.0000    0.0000    0.0000   -0.0000   -0.0000   -0.0000   -0.0000    0.0002   -0.0000   -0.0000
        9 O1     3pz       -0.0000    0.0000    0.0000    0.0000   -0.0001   -0.0001    0.0001    0.0002   -0.0000   -0.0000
       10 O1     3d2-       0.0000   -0.0000   -0.0000   -0.0000    0.0000   -0.0000   -0.0000    0.0000    0.0000    0.0000
       11 O1     3d1-      -0.0000    0.0000   -0.0000    0.0000    0.0000    0.0000   -0.0000   -0.0000   -0.0000   -0.0000
       12 O1     3d0        0.0000   -0.0000    0.0000   -0.0000    0.0000    0.0015   -0.0000   -0.0000   -0.0000   -0.0000
       13 O1     3d1+       0.0000    0.0000   -0.0000   -0.0000    0.0000    0.0000   -0.0000   -0.0000    0.0000   -0.0000
       14 O1     3d2+       0.0000   -0.0000    0.0000   -0.0000   -0.0000   -0.0000   -0.0000   -0.0000   -0.0000    0.0000
       15 FE2    1s         1.0000    0.0000    0.0000   -0.0000    0.0000   -0.0000   -0.0000   -0.0000   -0.0000   -0.0000
       16 FE2    2s        -0.0000    1.0000    0.0000   -0.0000    0.0002   -0.0000    0.0006    0.0000    0.0000    0.0000
       17 FE2    3s         0.0000   -0.0006   -0.0000    0.0000   -0.0000   -0.0000    1.0000    0.0015    0.0000    0.0000
       18 FE2    4s         0.0000    0.0002    0.0000    0.0000   -0.0000   -0.0001    0.0024    0.0005   -0.0000   -0.0000
       19 FE2    5s         0.0000   -0.0002   -0.0000    0.0000   -0.0000   -0.0001   -0.0011    0.0003    0.0000    0.0000
       20 FE2    2px       -0.0000   -0.0000    0.5474    0.8369    0.0000    0.0000    0.0000   -0.0000   -0.0000    0.0026
       21 FE2    3px       -0.0000   -0.0000   -0.0014   -0.0022   -0.0000    0.0000   -0.0000   -0.0000   -0.0072    0.9999
       22 FE2    4px       -0.0000    0.0000    0.0002    0.0003    0.0000    0.0000   -0.0000    0.0000   -0.0000    0.0034
       23 FE2    5px        0.0000   -0.0000   -0.0005   -0.0007   -0.0000    0.0000    0.0000   -0.0000    0.0000   -0.0045
       24 FE2    2py       -0.0000   -0.0000    0.8369   -0.5474   -0.0000   -0.0000    0.0000   -0.0000    0.0026    0.0000
       25 FE2    3py        0.0000   -0.0000   -0.0022    0.0014    0.0000    0.0000   -0.0000   -0.0000    0.9999    0.0072
       26 FE2    4py       -0.0000    0.0000    0.0003   -0.0002   -0.0000    0.0000   -0.0000    0.0000    0.0034    0.0000
       27 FE2    5py        0.0000   -0.0000   -0.0007    0.0005    0.0000    0.0000    0.0000    0.0000   -0.0045   -0.0000
       28 FE2    2pz       -0.0000   -0.0002    0.0000   -0.0000    1.0000   -0.0000    0.0000    0.0016    0.0000    0.0000
       29 FE2    3pz        0.0000   -0.0000   -0.0000    0.0000   -0.0016   -0.0000   -0.0014    0.9998    0.0000    0.0000
       30 FE2    4pz       -0.0000    0.0000    0.0000   -0.0000    0.0002   -0.0001   -0.0001    0.0056    0.0000    0.0000
       31 FE2    5pz        0.0000   -0.0000   -0.0000    0.0000   -0.0008   -0.0001    0.0005   -0.0049   -0.0000   -0.0000
       32 FE2    3d2-      -0.0000    0.0000   -0.0000   -0.0000   -0.0000    0.0000   -0.0000   -0.0000   -0.0000   -0.0000
       33 FE2    4d2-       0.0000   -0.0000    0.0000    0.0000    0.0000   -0.0000    0.0000    0.0000    0.0000    0.0000
       34 FE2    3d1-       0.0000   -0.0000   -0.0000    0.0000   -0.0000    0.0000   -0.0000   -0.0000   -0.0010   -0.0000
       35 FE2    4d1-       0.0000    0.0000    0.0000   -0.0000    0.0000    0.0000    0.0000    0.0000    0.0004    0.0000
       36 FE2    3d0        0.0000    0.0000    0.0000    0.0000   -0.0000   -0.0000    0.0013   -0.0019    0.0000    0.0000
       37 FE2    4d0        0.0000    0.0000   -0.0000    0.0000    0.0000   -0.0001    0.0002    0.0014    0.0000    0.0000
       38 FE2    3d1+       0.0000   -0.0000   -0.0000   -0.0000   -0.0000    0.0000   -0.0000   -0.0000    0.0000   -0.0010
       39 FE2    4d1+      -0.0000    0.0000    0.0000    0.0000    0.0000    0.0000    0.0000    0.0000   -0.0000    0.0004
       40 FE2    3d2+       0.0000   -0.0000    0.0000   -0.0000    0.0000    0.0000    0.0000    0.0000    0.0000   -0.0000
       41 FE2    4d2+       0.0000   -0.0000   -0.0000    0.0000   -0.0000   -0.0000   -0.0000   -0.0000   -0.0000    0.0000
       42 FE2    4f3-      -0.0000   -0.0000   -0.0000    0.0000    0.0000   -0.0000    0.0000    0.0000   -0.0000   -0.0000
       43 FE2    4f2-      -0.0000    0.0000   -0.0000   -0.0000    0.0000   -0.0000   -0.0000   -0.0000   -0.0000   -0.0000
       44 FE2    4f1-       0.0000   -0.0000   -0.0004    0.0003    0.0000    0.0000   -0.0000   -0.0000   -0.0102   -0.0001
       45 FE2    4f0        0.0000   -0.0000    0.0000   -0.0000    0.0010   -0.0000   -0.0000    0.0163    0.0000    0.0000
       46 FE2    4f1+       0.0000   -0.0000   -0.0003   -0.0004   -0.0000    0.0000   -0.0000    0.0000    0.0001   -0.0102
       47 FE2    4f2+       0.0000    0.0000    0.0000   -0.0000    0.0000    0.0000    0.0000    0.0000    0.0000   -0.0000
       48 FE2    4f3+      -0.0000    0.0000   -0.0000   -0.0000    0.0000   -0.0000    0.0000   -0.0000    0.0000   -0.0000
 
          Orbital           11        12        13        14        15        16        17        18        19        20    
          Energy           -1.8537   -1.3749   -0.9216   -0.6803   -0.5437   -0.5437   -0.2897   -0.2813   -0.2813   -0.2133
          Occ. No.          1.0000    1.0000    1.0000    1.0000    0.0000    0.0000    0.0000    0.0000    0.0000    0.0000
 
        1 O1     1s         0.0019    0.0001   -0.0008   -0.0026    0.0000    0.0000   -0.0059    0.0000   -0.0000   -0.0000
        2 O1     2s         0.9980    0.0082   -0.0108   -0.0340    0.0000    0.0000   -0.0643    0.0000   -0.0000   -0.0000
        3 O1     3s        -0.0458   -0.0051   -0.0031    0.0044    0.0000    0.0000    0.0281    0.0000   -0.0000   -0.0000
        4 O1     2px       -0.0000    0.0000    0.0000    0.0000    0.0244    0.9906   -0.0000   -0.0466   -0.0091   -0.0000
        5 O1     3px        0.0000   -0.0000    0.0000    0.0000    0.0032    0.1318   -0.0000    0.0198    0.0039    0.0000
        6 O1     2py       -0.0000    0.0000    0.0000    0.0000    0.9906   -0.0244   -0.0000   -0.0091    0.0466    0.0000
        7 O1     3py        0.0000   -0.0000    0.0000    0.0000    0.1318   -0.0032   -0.0000    0.0039   -0.0198   -0.0000
        8 O1     2pz       -0.0087    0.9913    0.0134    0.0337   -0.0000   -0.0000    0.0365    0.0000   -0.0000    0.0000
        9 O1     3pz       -0.0043   -0.1281    0.0027   -0.0188   -0.0000   -0.0000   -0.0867    0.0000   -0.0000    0.0000
       10 O1     3d2-      -0.0000   -0.0000   -0.0000    0.0000    0.0000    0.0000    0.0000    0.0000   -0.0000   -0.0000
       11 O1     3d1-       0.0000    0.0000   -0.0000   -0.0000   -0.0027    0.0001   -0.0000   -0.0006    0.0030    0.0000
       12 O1     3d0        0.0558   -0.0021    0.0001    0.0020    0.0000    0.0000    0.0040   -0.0000    0.0000   -0.0000
       13 O1     3d1+       0.0000    0.0000   -0.0000   -0.0000   -0.0001   -0.0027   -0.0000   -0.0030   -0.0006   -0.0000
       14 O1     3d2+      -0.0000   -0.0000   -0.0000    0.0000   -0.0000    0.0000   -0.0000    0.0000    0.0000    0.0003
       15 FE2    1s        -0.0000   -0.0000    0.0000   -0.0000   -0.0000   -0.0000   -0.0001    0.0000   -0.0000    0.0000
       16 FE2    2s        -0.0000   -0.0001   -0.0000   -0.0003    0.0000    0.0000   -0.0004    0.0000   -0.0000    0.0000
       17 FE2    3s        -0.0002   -0.0005   -0.0012   -0.0029    0.0000    0.0000   -0.0016    0.0000   -0.0000    0.0000
       18 FE2    4s        -0.0020   -0.0067    0.0134    0.9629   -0.0000   -0.0000   -0.1954    0.0000   -0.0000    0.0000
       19 FE2    5s        -0.0027    0.0001    0.0021   -0.1780    0.0000    0.0000    0.0789   -0.0000    0.0000    0.0000
       20 FE2    2px       -0.0000    0.0000   -0.0000   -0.0000   -0.0000   -0.0000   -0.0000   -0.0003   -0.0000    0.0000
       21 FE2    3px       -0.0000    0.0000   -0.0000   -0.0000   -0.0000   -0.0009   -0.0000   -0.0029   -0.0006    0.0000
       22 FE2    4px        0.0000   -0.0000    0.0000    0.0000    0.0001    0.0060    0.0000    0.9699    0.1894    0.0000
       23 FE2    5px        0.0000   -0.0000   -0.0000    0.0000    0.0000    0.0003    0.0000    0.1032    0.0202    0.0000
       24 FE2    2py       -0.0000   -0.0000   -0.0000   -0.0000   -0.0000    0.0000   -0.0000   -0.0000    0.0003   -0.0000
       25 FE2    3py       -0.0000    0.0000   -0.0000   -0.0000   -0.0009    0.0000   -0.0000   -0.0006    0.0029   -0.0000
       26 FE2    4py        0.0000   -0.0000    0.0000    0.0000    0.0060   -0.0001    0.0000    0.1894   -0.9699   -0.0000
       27 FE2    5py        0.0000   -0.0000   -0.0000    0.0000    0.0003   -0.0000    0.0000    0.0202   -0.1032   -0.0000
       28 FE2    2pz       -0.0000   -0.0000    0.0000   -0.0001    0.0000   -0.0000   -0.0003    0.0000   -0.0000   -0.0000
       29 FE2    3pz       -0.0003    0.0003    0.0018   -0.0016   -0.0000   -0.0000   -0.0062    0.0000   -0.0000   -0.0000
       30 FE2    4pz       -0.0029   -0.0038    0.0310    0.1855   -0.0000   -0.0000    0.9488   -0.0000    0.0000    0.0000
       31 FE2    5pz       -0.0013   -0.0005    0.0026    0.0179   -0.0000   -0.0000    0.1028   -0.0000    0.0000    0.0000
       32 FE2    3d2-       0.0000    0.0000   -0.0000    0.0000    0.0000    0.0000   -0.0000   -0.0000    0.0000   -0.0367
       33 FE2    4d2-      -0.0000   -0.0000   -0.0000    0.0000    0.0000    0.0000   -0.0000   -0.0000    0.0000   -0.0092
       34 FE2    3d1-       0.0000   -0.0000   -0.0000    0.0000    0.0038   -0.0001    0.0000    0.0155   -0.0794    0.0000
       35 FE2    4d1-       0.0000   -0.0000    0.0000    0.0000    0.0020   -0.0001    0.0000    0.0069   -0.0352    0.0000
       36 FE2    3d0       -0.0002   -0.0027    0.9994   -0.0173   -0.0000   -0.0000   -0.0297    0.0000   -0.0000   -0.0000
       37 FE2    4d0       -0.0013   -0.0004    0.0278    0.0070    0.0000    0.0000    0.0238   -0.0000    0.0000   -0.0000
       38 FE2    3d1+       0.0000   -0.0000   -0.0000    0.0000    0.0001    0.0038    0.0000    0.0794    0.0155   -0.0000
       39 FE2    4d1+       0.0000   -0.0000    0.0000    0.0000    0.0001    0.0020    0.0000    0.0352    0.0069   -0.0000
       40 FE2    3d2+       0.0000   -0.0000    0.0000   -0.0000   -0.0000    0.0000   -0.0000   -0.0000   -0.0000    0.9690
       41 FE2    4d2+      -0.0000    0.0000    0.0000   -0.0000   -0.0000    0.0000   -0.0000   -0.0000   -0.0000    0.2442
       42 FE2    4f3-       0.0000    0.0000    0.0000    0.0000   -0.0000   -0.0000    0.0000   -0.0000    0.0000   -0.0000
       43 FE2    4f2-       0.0000    0.0000   -0.0000    0.0000    0.0000    0.0000    0.0000    0.0000   -0.0000    0.0000
       44 FE2    4f1-       0.0000   -0.0000   -0.0000    0.0000    0.0001   -0.0000    0.0000   -0.0001    0.0004   -0.0000
       45 FE2    4f0       -0.0000   -0.0001   -0.0004    0.0008   -0.0000   -0.0000    0.0015   -0.0000    0.0000    0.0000
       46 FE2    4f1+       0.0000   -0.0000   -0.0000    0.0000    0.0000    0.0001    0.0000   -0.0004   -0.0001    0.0000
       47 FE2    4f2+      -0.0000    0.0000   -0.0000   -0.0000   -0.0000    0.0000    0.0000    0.0000    0.0000   -0.0004
       48 FE2    4f3+       0.0000   -0.0000   -0.0000   -0.0000    0.0000   -0.0000    0.0000   -0.0000   -0.0000   -0.0000
 
          Orbital           21        22        23        24    
          Energy           -0.2133   -0.1777   -0.1777   -0.1582
          Occ. No.          0.0000    0.0000    0.0000    0.0000
 
        1 O1     1s         0.0000    0.0000    0.0000   -0.0106
        2 O1     2s         0.0000    0.0000    0.0000   -0.0998
        3 O1     3s        -0.0000    0.0000    0.0000    0.0289
        4 O1     2px       -0.0000   -0.0200   -0.0000   -0.0000
        5 O1     3px        0.0000    0.0226    0.0000   -0.0000
        6 O1     2py       -0.0000    0.0000   -0.0200   -0.0000
        7 O1     3py        0.0000   -0.0000    0.0226   -0.0000
        8 O1     2pz       -0.0000    0.0000    0.0000    0.0373
        9 O1     3pz        0.0000    0.0000    0.0000   -0.0126
       10 O1     3d2-       0.0003    0.0000    0.0000    0.0000
       11 O1     3d1-      -0.0000    0.0000   -0.0021   -0.0000
       12 O1     3d0       -0.0000   -0.0000   -0.0000   -0.0043
       13 O1     3d1+      -0.0000   -0.0021   -0.0000   -0.0000
       14 O1     3d2+       0.0000    0.0000   -0.0000   -0.0000
       15 FE2    1s         0.0000    0.0000    0.0000   -0.0000
       16 FE2    2s         0.0000    0.0000    0.0000    0.0001
       17 FE2    3s         0.0000    0.0000    0.0000    0.0004
       18 FE2    4s        -0.0000   -0.0000   -0.0000    0.1899
       19 FE2    5s        -0.0000   -0.0000   -0.0000    0.9804
       20 FE2    2px        0.0000    0.0000    0.0000    0.0000
       21 FE2    3px        0.0000    0.0011    0.0000   -0.0000
       22 FE2    4px        0.0000   -0.0907   -0.0001   -0.0000
       23 FE2    5px        0.0000   -0.0087   -0.0000   -0.0000
       24 FE2    2py        0.0000   -0.0000    0.0000    0.0000
       25 FE2    3py        0.0000   -0.0000    0.0011   -0.0000
       26 FE2    4py        0.0000    0.0001   -0.0907   -0.0000
       27 FE2    5py        0.0000    0.0000   -0.0087   -0.0000
       28 FE2    2pz       -0.0000    0.0000    0.0000    0.0000
       29 FE2    3pz       -0.0000    0.0000    0.0000   -0.0002
       30 FE2    4pz        0.0000    0.0000    0.0000   -0.0576
       31 FE2    5pz        0.0000    0.0000    0.0000    0.0016
       32 FE2    3d2-       0.9690    0.0000    0.0000    0.0000
       33 FE2    4d2-       0.2442    0.0000    0.0000    0.0000
       34 FE2    3d1-      -0.0000   -0.0008    0.9590    0.0000
       35 FE2    4d1-      -0.0000   -0.0002    0.2645    0.0000
       36 FE2    3d0       -0.0000    0.0000    0.0000   -0.0011
       37 FE2    4d0       -0.0000   -0.0000    0.0000    0.0063
       38 FE2    3d1+      -0.0000    0.9590    0.0008    0.0000
       39 FE2    4d1+      -0.0000    0.2645    0.0002    0.0000
       40 FE2    3d2+       0.0367    0.0000   -0.0000   -0.0000
       41 FE2    4d2+       0.0092    0.0000   -0.0000   -0.0000
       42 FE2    4f3-      -0.0000   -0.0000    0.0000   -0.0000
       43 FE2    4f2-      -0.0004   -0.0000   -0.0000   -0.0000
       44 FE2    4f1-       0.0000    0.0000   -0.0002   -0.0000
       45 FE2    4f0        0.0000    0.0000    0.0000   -0.0002
       46 FE2    4f1+       0.0000   -0.0002   -0.0000   -0.0000
       47 FE2    4f2+      -0.0000   -0.0000    0.0000    0.0000
       48 FE2    4f3+       0.0000    0.0000    0.0000    0.0000
--
 
 
++    Molecular charges:
      ------------------
 
      Mulliken charges per centre and basis function type
      ---------------------------------------------------
 
                            O1                      FE2   
                     alpha        beta       alpha        beta
      1s           1.0000      1.0000      1.0000      1.0000
      2s           0.9927      0.9953      1.0000      1.0000
      2px          0.9795      0.0000      1.0000      1.0000
      2pz          0.0001      0.9825      1.0000      1.0000
      2py          0.9795      0.0000      1.0000      1.0000
      3s           0.0050      0.0025      1.0000      1.0000
      3px          0.0205      0.0000      0.9999      0.9999
      3pz         -0.0001      0.0208      0.9998      0.9997
      3py          0.0205      0.0000      0.9999      0.9999
      4s           0.0000      0.0000     -0.0000      0.9287
      3d2+        -0.0000      0.0000      0.9951      0.0000
      3d1+         0.0000      0.0000      0.9962      0.0000
      3d0          0.0026      0.0032      0.9981      0.9988
      3d1-         0.0000      0.0000      0.9962      0.0000
      3d2-        -0.0000      0.0000      0.9951      0.0000
      4px          0.0000      0.0000      0.0001      0.0000
      4pz          0.0000      0.0000     -0.0000      0.0354
      4py          0.0000      0.0000      0.0001      0.0000
      5s           0.0000      0.0000     -0.0002      0.0319
      4d2+         0.0000      0.0000      0.0049      0.0000
      4d1+         0.0000      0.0000      0.0038      0.0000
      4d0          0.0000      0.0000      0.0020      0.0007
      4d1-         0.0000      0.0000      0.0038      0.0000
      4d2-         0.0000      0.0000      0.0049      0.0000
      5px          0.0000      0.0000      0.0000      0.0000
      5pz          0.0000      0.0000     -0.0000      0.0002
      5py          0.0000      0.0000      0.0000      0.0000
      4f3+         0.0000      0.0000      0.0000      0.0000
      4f2+         0.0000      0.0000      0.0000      0.0000
      4f1+         0.0000      0.0000      0.0000      0.0001
      4f0          0.0000      0.0000      0.0001      0.0003
      4f1-         0.0000      0.0000      0.0000      0.0001
      4f2-         0.0000      0.0000      0.0000      0.0000
      4f3-         0.0000      0.0000      0.0000      0.0000
      Total        4.0001      3.0043     13.9999     10.9957
      Total              7.0045                 24.9955
 
      Charge            0.9955                  1.0045
 
      Total electronic charge=   32.000000
 
      Total            charge=    2.000000
--
 
 
  Input file to MOLDEN was generated!
 
 
++    Static properties:
      ------------------
 
 
      LoProp Charges per center
 

                   O1       FE2   
      Nuclear      8.0000  26.0000
      Electronic  -7.0002 -24.9998
 
      Total        0.9998   1.0002
--
 
 
++    Natural Bond Order analysis
      ---------------------------
      Based on LoProp computed density
      -------------------------------------------------------------------------------------
      Atom A       Atom B       Bond Order
      -------------------------------------------------------------------------------------
      NBO located     19.999 core electrons.
      NBO located      3.993 lone pair electrons.
      NBO located      1.000 non-bonded electrons on atom O1        
      NBO located      1.000 non-bonded electrons on atom O1        
      NBO located      1.000 non-bonded electrons on atom O1        
      NBO located      0.996 non-bonded electrons on atom FE2       
      NBO located      1.000 non-bonded electrons on atom FE2       
      NBO located      1.000 non-bonded electrons on atom FE2       
      NBO located      1.000 non-bonded electrons on atom FE2       
      NBO located      1.000 non-bonded electrons on atom FE2       
      The remaining    0.013 electrons are to be considered as diffuse
--
 
 
++    Molecular orbitals:
      -------------------
 
      Title: Natural orbitals

      Molecular orbitals for symmetry species 1: a  
 
          Orbital            1         2         3         4         5         6         7         8         9        10    
          Energy         -264.1004  -32.1529  -21.5598  -27.6450  -27.4395  -27.6445   -5.7069   -3.5103   -3.5108   -3.2872
          Occ. No.          2.0000    2.0000    2.0000    2.0000    2.0000    2.0000    2.0000    1.9999    1.9999    1.9996
 
        1 O1     1s         0.0000   -0.0187   -0.9889    0.0000   -0.1413    0.0000   -0.0307   -0.0000   -0.0000    0.0003
        2 O1     2s        -0.0000    0.0007    0.0299   -0.0000    0.0043   -0.0000    0.0019   -0.0000   -0.0000   -0.0020
        3 O1     3s        -0.0000   -0.0000   -0.0013    0.0000   -0.0001    0.0000    0.0002    0.0000    0.0000   -0.0002
        4 O1     2px        0.0000   -0.0000   -0.0000   -0.0000    0.0000    0.0000    0.0000    0.0001   -0.0000    0.0000
        5 O1     3px        0.0000    0.0000    0.0000   -0.0000    0.0000    0.0000    0.0000    0.0002   -0.0000   -0.0000
        6 O1     2py        0.0000   -0.0000   -0.0000   -0.0000    0.0000   -0.0000    0.0000    0.0000    0.0001    0.0000
        7 O1     3py       -0.0000    0.0000    0.0000   -0.0000   -0.0000   -0.0000    0.0000    0.0000    0.0002   -0.0000
        8 O1     2pz       -0.0000   -0.0000   -0.0003    0.0000   -0.0001    0.0000   -0.0001    0.0000    0.0000    0.0001
        9 O1     3pz       -0.0000   -0.0000   -0.0000   -0.0000   -0.0001    0.0000   -0.0004   -0.0000   -0.0000    0.0004
       10 O1     3d2-       0.0000   -0.0000   -0.0000   -0.0000   -0.0000   -0.0000    0.0000    0.0000    0.0000   -0.0000
       11 O1     3d1-      -0.0000    0.0000   -0.0000    0.0000   -0.0000    0.0000    0.0000   -0.0000   -0.0000    0.0000
       12 O1     3d0        0.0000   -0.0000    0.0000   -0.0000    0.0000   -0.0000    0.0000   -0.0000   -0.0000   -0.0000
       13 O1     3d1+       0.0000    0.0000   -0.0000    0.0000   -0.0000   -0.0000    0.0000   -0.0000    0.0000    0.0000
       14 O1     3d2+       0.0000    0.0000    0.0000   -0.0000    0.0000    0.0000    0.0000    0.0000   -0.0000   -0.0000
       15 FE2    1s         1.0000   -0.0002    0.0000   -0.0000   -0.0000    0.0000    0.0001   -0.0000   -0.0000   -0.0000
       16 FE2    2s         0.0002    0.9868   -0.0058   -0.0000   -0.0572    0.0000   -0.1515   -0.0000   -0.0000   -0.0008
       17 FE2    3s         0.0001   -0.1565    0.0490   -0.0000   -0.1084    0.0000   -0.9791   -0.0000   -0.0000   -0.0122
       18 FE2    4s         0.0000   -0.0004   -0.0000   -0.0000   -0.0001    0.0000   -0.0006   -0.0000   -0.0000    0.0014
       19 FE2    5s         0.0000    0.0001   -0.0000    0.0000   -0.0000    0.0000   -0.0002    0.0000    0.0000   -0.0002
       20 FE2    2px       -0.0000    0.0000    0.0000    0.9931   -0.0000   -0.0427   -0.0000    0.1089   -0.0008   -0.0000
       21 FE2    3px        0.0000   -0.0000   -0.0000   -0.1088    0.0000    0.0047    0.0000    0.9940   -0.0073   -0.0000
       22 FE2    4px       -0.0000    0.0000    0.0000    0.0003   -0.0000   -0.0000    0.0000   -0.0026    0.0000    0.0000
       23 FE2    5px        0.0000   -0.0000    0.0000    0.0001   -0.0000   -0.0000   -0.0000    0.0003   -0.0000   -0.0000
       24 FE2    2py        0.0000    0.0000    0.0000    0.0427    0.0000    0.9931   -0.0000    0.0008    0.1090   -0.0000
       25 FE2    3py        0.0000   -0.0000   -0.0000   -0.0047   -0.0000   -0.1089    0.0000    0.0073    0.9940   -0.0000
       26 FE2    4py       -0.0000    0.0000    0.0000    0.0000    0.0000    0.0003   -0.0000   -0.0000   -0.0026    0.0000
       27 FE2    5py        0.0000   -0.0000    0.0000    0.0000    0.0000    0.0001   -0.0000    0.0000    0.0003   -0.0000
       28 FE2    2pz       -0.0000   -0.0373    0.1369   -0.0000   -0.9804    0.0000    0.1220   -0.0000   -0.0000   -0.0621
       29 FE2    3pz       -0.0000    0.0032   -0.0095    0.0000    0.0619   -0.0000    0.0005   -0.0000   -0.0000   -0.9948
       30 FE2    4pz        0.0000   -0.0001   -0.0000   -0.0000   -0.0001    0.0000   -0.0006    0.0000    0.0000    0.0017
       31 FE2    5pz        0.0000   -0.0001    0.0000   -0.0000   -0.0001    0.0000   -0.0005    0.0000    0.0000    0.0012
       32 FE2    3d2-      -0.0000    0.0000   -0.0000    0.0000    0.0000    0.0000    0.0000   -0.0000   -0.0000   -0.0000
       33 FE2    4d2-       0.0000   -0.0000    0.0000    0.0000   -0.0000    0.0000   -0.0000    0.0000    0.0000   -0.0000
       34 FE2    3d1-      -0.0000    0.0000    0.0000    0.0000    0.0000    0.0001    0.0000   -0.0000   -0.0011    0.0000
       35 FE2    4d1-       0.0000   -0.0000   -0.0000   -0.0000   -0.0000   -0.0000   -0.0000    0.0000    0.0002   -0.0000
       36 FE2    3d0        0.0000   -0.0034    0.0013   -0.0000   -0.0076    0.0000   -0.0505   -0.0000   -0.0000    0.0796
       37 FE2    4d0        0.0000   -0.0001    0.0001   -0.0000   -0.0002    0.0000   -0.0017    0.0000    0.0000   -0.0014
       38 FE2    3d1+      -0.0000    0.0000    0.0000    0.0001   -0.0000   -0.0000    0.0000   -0.0011    0.0000    0.0000
       39 FE2    4d1+      -0.0000   -0.0000   -0.0000   -0.0000    0.0000    0.0000   -0.0000    0.0002   -0.0000   -0.0000
       40 FE2    3d2+       0.0000   -0.0000    0.0000    0.0000   -0.0000   -0.0000   -0.0000   -0.0000    0.0000    0.0000
       41 FE2    4d2+      -0.0000    0.0000   -0.0000    0.0000    0.0000   -0.0000    0.0000    0.0000   -0.0000   -0.0000
       42 FE2    4f3-      -0.0000   -0.0000    0.0000   -0.0000   -0.0000   -0.0000    0.0000    0.0000    0.0000   -0.0000
       43 FE2    4f2-      -0.0000    0.0000    0.0000    0.0000   -0.0000    0.0000    0.0000   -0.0000   -0.0000    0.0000
       44 FE2    4f1-      -0.0000    0.0000    0.0000    0.0000    0.0000    0.0004   -0.0000   -0.0000   -0.0067    0.0000
       45 FE2    4f0       -0.0000   -0.0000    0.0000   -0.0000   -0.0002    0.0000    0.0001   -0.0000   -0.0000   -0.0031
       46 FE2    4f1+       0.0000    0.0000    0.0000    0.0004   -0.0000   -0.0000    0.0000   -0.0067    0.0000    0.0000
       47 FE2    4f2+       0.0000    0.0000   -0.0000    0.0000    0.0000   -0.0000    0.0000   -0.0000    0.0000   -0.0000
       48 FE2    4f3+      -0.0000    0.0000    0.0000   -0.0000   -0.0000    0.0000   -0.0000    0.0000   -0.0000    0.0000
 
          Orbital           11        12        13        14        15        16        17        18        19        20    
          Energy           -1.0247   -1.9439   -0.7612   -0.9546   -0.6389   -0.6389   -0.6033   -0.6106   -0.9494   -0.7309
          Occ. No.          1.9971    1.9940    1.0000    1.0000    1.0000    1.0000    1.0000    1.0000    1.0000    1.0000
 
        1 O1     1s        -0.0045    0.0301   -0.0017   -0.0001    0.0000   -0.0000   -0.0000   -0.0000    0.0002   -0.0018
        2 O1     2s        -0.0890    0.9944   -0.0196   -0.0009    0.0000   -0.0000   -0.0004   -0.0017    0.0112   -0.0210
        3 O1     3s         0.0023   -0.0582    0.0027    0.0001   -0.0000    0.0000    0.0002    0.0008   -0.0053    0.0029
        4 O1     2px        0.0000   -0.0000    0.2944    0.8919    0.0017   -0.0001   -0.0056   -0.0076   -0.0028   -0.3116
        5 O1     3px       -0.0000    0.0000   -0.0426   -0.1291   -0.0003    0.0000   -0.0011    0.0011    0.0003    0.0451
        6 O1     2py        0.0000   -0.0000    0.6625   -0.4277    0.0012   -0.0001   -0.0039   -0.0097   -0.0008   -0.5979
        7 O1     3py       -0.0000    0.0000   -0.0959    0.0619   -0.0002    0.0000    0.0005   -0.0005   -0.0002    0.0866
        8 O1     2pz        0.0027   -0.0105    0.0517    0.0040    0.0032    0.0000   -0.0328   -0.1458    0.9776    0.0556
        9 O1     3pz        0.0042   -0.0023   -0.0165   -0.0010   -0.0004   -0.0000    0.0042    0.0187   -0.1257   -0.0177
       10 O1     3d2-      -0.0000   -0.0000   -0.0000   -0.0000    0.0000   -0.0000    0.0000    0.0000   -0.0000    0.0000
       11 O1     3d1-      -0.0000    0.0000   -0.0020    0.0013   -0.0000    0.0000    0.0000    0.0001    0.0000    0.0018
       12 O1     3d0       -0.0001    0.0026    0.0015    0.0001   -0.0000    0.0000    0.0001    0.0003   -0.0020    0.0016
       13 O1     3d1+      -0.0000    0.0000   -0.0009   -0.0027   -0.0000    0.0000    0.0001    0.0000    0.0000    0.0009
       14 O1     3d2+      -0.0000    0.0000    0.0000    0.0000   -0.0000   -0.0000   -0.0000   -0.0000    0.0000   -0.0000
       15 FE2    1s        -0.0000   -0.0000   -0.0000   -0.0000   -0.0000   -0.0000    0.0000    0.0000   -0.0000   -0.0000
       16 FE2    2s        -0.0046   -0.0004    0.0001    0.0000   -0.0000    0.0000    0.0000    0.0000   -0.0002    0.0001
       17 FE2    3s        -0.0498   -0.0038   -0.0006   -0.0000   -0.0000   -0.0000    0.0000    0.0001   -0.0004   -0.0007
       18 FE2    4s         0.0009   -0.0039    0.6547    0.0298   -0.0003    0.0000    0.0022    0.0083   -0.0468    0.7040
       19 FE2    5s         0.0037   -0.0016   -0.1210   -0.0055    0.0001   -0.0000   -0.0004   -0.0014    0.0076   -0.1301
       20 FE2    2px       -0.0000    0.0000    0.0000    0.0000    0.0000   -0.0000    0.0000   -0.0000    0.0000   -0.0000
       21 FE2    3px        0.0000    0.0000    0.0000    0.0001    0.0000    0.0000    0.0011   -0.0000    0.0000   -0.0000
       22 FE2    4px        0.0000    0.0000    0.0006    0.0019    0.0000   -0.0000   -0.0007   -0.0000   -0.0000   -0.0007
       23 FE2    5px       -0.0000    0.0000    0.0002    0.0006    0.0000   -0.0000    0.0012   -0.0000    0.0000   -0.0002
       24 FE2    2py       -0.0000    0.0000    0.0000   -0.0000    0.0000   -0.0000    0.0000    0.0000    0.0000   -0.0000
       25 FE2    3py        0.0000    0.0000    0.0001   -0.0000    0.0000   -0.0000    0.0000    0.0011    0.0002   -0.0001
       26 FE2    4py        0.0000    0.0000    0.0014   -0.0009    0.0000   -0.0000   -0.0000   -0.0007   -0.0001   -0.0012
       27 FE2    5py       -0.0000    0.0000    0.0005   -0.0003    0.0000   -0.0000    0.0000    0.0011    0.0002   -0.0004
       28 FE2    2pz        0.0033    0.0001    0.0000    0.0000   -0.0000    0.0000    0.0000    0.0000   -0.0000    0.0000
       29 FE2    3pz        0.0800    0.0050    0.0008    0.0000    0.0000    0.0000   -0.0000   -0.0000    0.0001    0.0009
       30 FE2    4pz        0.0156   -0.0013    0.1264    0.0058   -0.0001    0.0000    0.0005    0.0019   -0.0113    0.1359
       31 FE2    5pz        0.0022   -0.0009    0.0122    0.0006   -0.0000    0.0000    0.0001    0.0002   -0.0012    0.0131
       32 FE2    3d2-      -0.0000   -0.0000    0.0001    0.0001   -0.0170    0.9974   -0.0000   -0.0000    0.0000   -0.0001
       33 FE2    4d2-       0.0000   -0.0000   -0.0000   -0.0000    0.0012   -0.0698    0.0000    0.0000   -0.0000    0.0000
       34 FE2    3d1-      -0.0000    0.0000    0.0074    0.0034   -0.0001   -0.0000    0.0102    0.9870    0.1476   -0.0089
       35 FE2    4d1-      -0.0000    0.0000    0.0001   -0.0006    0.0000    0.0000   -0.0006   -0.0607   -0.0091    0.0001
       36 FE2    3d0        0.9922    0.0818   -0.0010   -0.0000    0.0000    0.0000   -0.0002   -0.0009    0.0063   -0.0010
       37 FE2    4d0       -0.0084   -0.0017    0.0050    0.0002   -0.0000    0.0000    0.0000    0.0001   -0.0005    0.0054
       38 FE2    3d1+      -0.0000    0.0000    0.0035    0.0026   -0.0001    0.0000    0.9975   -0.0151    0.0313   -0.0043
       39 FE2    4d1+      -0.0000    0.0000    0.0000    0.0006    0.0000   -0.0000   -0.0613    0.0009   -0.0019    0.0000
       40 FE2    3d2+       0.0000    0.0000   -0.0012   -0.0010    0.9974    0.0170    0.0002    0.0006   -0.0031    0.0014
       41 FE2    4d2+      -0.0000   -0.0000    0.0001    0.0001   -0.0698   -0.0012   -0.0000   -0.0000    0.0002   -0.0001
       42 FE2    4f3-       0.0000    0.0000    0.0000    0.0000   -0.0000   -0.0000    0.0000   -0.0000    0.0000   -0.0000
       43 FE2    4f2-      -0.0000    0.0000   -0.0000   -0.0000    0.0000   -0.0009    0.0000    0.0000   -0.0000    0.0000
       44 FE2    4f1-      -0.0000   -0.0000    0.0000   -0.0000    0.0000    0.0000   -0.0000   -0.0011   -0.0002   -0.0000
       45 FE2    4f0       -0.0005   -0.0001    0.0006    0.0000   -0.0000    0.0000    0.0000    0.0000   -0.0001    0.0006
       46 FE2    4f1+      -0.0000   -0.0000    0.0000    0.0000    0.0000   -0.0000   -0.0011    0.0000   -0.0000   -0.0000
       47 FE2    4f2+       0.0000    0.0000    0.0000    0.0000   -0.0009   -0.0000   -0.0000   -0.0000    0.0000   -0.0000
       48 FE2    4f3+      -0.0000    0.0000    0.0000    0.0000   -0.0000    0.0000   -0.0000   -0.0000    0.0000   -0.0000
 
          Orbital           21        22        23        24        25        26        27        28        29        30    
          Energy            1.3931    0.4852    2.9843    1.1770    1.1770   -0.0459    1.2470    1.2470    1.8831    0.4744
          Occ. No.          0.0060    0.0029    0.0004    0.0001    0.0001    0.0000    0.0000    0.0000    0.0000    0.0000
 
        1 O1     1s         0.0000   -0.0063    0.0008   -0.0000   -0.0000   -0.0075   -0.0000    0.0000    0.0103    0.0033
        2 O1     2s         0.0109   -0.0694    0.0061    0.0000    0.0000   -0.0772   -0.0000    0.0000    0.1155    0.0884
        3 O1     3s         0.2250   -0.0434   -0.0080   -0.0000   -0.0000   -0.1686   -0.0000    0.0000    0.2302    0.9697
        4 O1     2px        0.0000    0.0000   -0.0000    0.0010   -0.0000    0.0000   -0.0283   -0.0004   -0.0000   -0.0000
        5 O1     3px        0.0000    0.0000   -0.0000    0.0017   -0.0000    0.0000   -0.0939   -0.0012   -0.0000   -0.0000
        6 O1     2py        0.0000    0.0000   -0.0000    0.0000    0.0010    0.0000   -0.0004    0.0283   -0.0000   -0.0000
        7 O1     3py        0.0000    0.0000   -0.0000    0.0000    0.0017    0.0000   -0.0012    0.0939   -0.0000   -0.0000
        8 O1     2pz        0.0003    0.0562    0.0040    0.0000    0.0000    0.0371   -0.0000   -0.0000   -0.0789   -0.0297
        9 O1     3pz       -0.0244    0.0053    0.0263    0.0000    0.0000    0.1273   -0.0000    0.0000   -0.1832   -0.1004
       10 O1     3d2-      -0.0000    0.0000    0.0000   -0.0000   -0.0000    0.0000   -0.0000    0.0000    0.0000   -0.0000
       11 O1     3d1-       0.0000   -0.0000   -0.0000   -0.0000   -0.0006    0.0000    0.0002   -0.0133    0.0000    0.0000
       12 O1     3d0        0.9715   -0.1135    0.0011    0.0000    0.0000    0.0222   -0.0000    0.0000    0.0087   -0.1993
       13 O1     3d1+       0.0000   -0.0000   -0.0000   -0.0006    0.0000    0.0000    0.0133    0.0002    0.0000    0.0000
       14 O1     3d2+       0.0000   -0.0000    0.0000   -0.0000    0.0000   -0.0000    0.0000    0.0000   -0.0000   -0.0000
       15 FE2    1s        -0.0000    0.0000    0.0000    0.0000    0.0000    0.0001   -0.0000    0.0000   -0.0001   -0.0001
       16 FE2    2s        -0.0003   -0.0001    0.0002    0.0000    0.0000    0.0007   -0.0000    0.0000   -0.0010   -0.0009
       17 FE2    3s        -0.0018   -0.0014    0.0012   -0.0000   -0.0000    0.0033   -0.0000    0.0000   -0.0050   -0.0050
       18 FE2    4s        -0.0555   -0.0550   -0.0457    0.0000    0.0000    0.2841   -0.0000    0.0000   -0.0849   -0.0679
       19 FE2    5s         0.0035    0.0379    0.0121   -0.0000   -0.0000    0.8495    0.0000   -0.0000   -0.2415   -0.0919
       20 FE2    2px       -0.0000   -0.0000    0.0000    0.0000   -0.0000   -0.0000   -0.0002   -0.0000    0.0000    0.0000
       21 FE2    3px       -0.0000   -0.0000    0.0000    0.0007   -0.0000   -0.0000   -0.0006   -0.0000    0.0000   -0.0000
       22 FE2    4px        0.0000    0.0000    0.0000   -0.7116    0.0042    0.0000    0.4906    0.0063   -0.0000   -0.0000
       23 FE2    5px        0.0000   -0.0000   -0.0000    0.5680   -0.0033   -0.0000    0.8269    0.0106   -0.0000    0.0000
       24 FE2    2py       -0.0000   -0.0000    0.0000    0.0000    0.0000   -0.0000   -0.0000    0.0002    0.0000   -0.0000
       25 FE2    3py       -0.0000   -0.0000    0.0000    0.0000    0.0007   -0.0000   -0.0000    0.0006    0.0000   -0.0000
       26 FE2    4py        0.0000    0.0000    0.0000   -0.0042   -0.7116    0.0000    0.0063   -0.4906   -0.0000   -0.0000
       27 FE2    5py        0.0000   -0.0000   -0.0000    0.0033    0.5680   -0.0000    0.0106   -0.8269   -0.0000    0.0000
       28 FE2    2pz       -0.0001   -0.0000   -0.0003   -0.0000   -0.0000    0.0001    0.0000   -0.0000   -0.0000   -0.0002
       29 FE2    3pz       -0.0020   -0.0003   -0.0024   -0.0000   -0.0000    0.0016   -0.0000    0.0000   -0.0037   -0.0045
       30 FE2    4pz       -0.0021    0.3438    0.3145   -0.0000   -0.0000   -0.3708    0.0000   -0.0000   -0.0918   -0.3495
       31 FE2    5pz       -0.0053   -0.0036   -0.2731    0.0000    0.0000   -0.1913   -0.0000    0.0000   -0.9722    0.0223
       32 FE2    3d2-      -0.0000   -0.0000    0.0000   -0.0000   -0.0000   -0.0000    0.0000   -0.0000    0.0000   -0.0000
       33 FE2    4d2-      -0.0000   -0.0000    0.0000   -0.0000   -0.0000   -0.0000    0.0000   -0.0000    0.0000   -0.0000
       34 FE2    3d1-       0.0000    0.0000    0.0000   -0.0000   -0.0021   -0.0000    0.0000   -0.0036    0.0000   -0.0000
       35 FE2    4d1-       0.0000    0.0000    0.0000   -0.0001   -0.0224   -0.0000    0.0007   -0.0545    0.0000   -0.0000
       36 FE2    3d0       -0.0110    0.0069   -0.0038    0.0000    0.0000    0.0130   -0.0000    0.0000   -0.0092   -0.0131
       37 FE2    4d0        0.0488    0.9461   -0.1463    0.0000    0.0000    0.1707   -0.0000    0.0000   -0.0435   -0.0206
       38 FE2    3d1+       0.0000    0.0000    0.0000   -0.0021    0.0000   -0.0000    0.0036    0.0000    0.0000   -0.0000
       39 FE2    4d1+       0.0000    0.0000    0.0000   -0.0224    0.0001   -0.0000    0.0545    0.0007    0.0000   -0.0000
       40 FE2    3d2+      -0.0000    0.0000   -0.0000   -0.0000    0.0000   -0.0000    0.0000    0.0000    0.0000   -0.0000
       41 FE2    4d2+       0.0000    0.0000   -0.0000   -0.0000    0.0000   -0.0000    0.0000    0.0000    0.0000   -0.0000
       42 FE2    4f3-      -0.0000   -0.0000   -0.0000    0.0000    0.0000    0.0000   -0.0000   -0.0000   -0.0000   -0.0000
       43 FE2    4f2-      -0.0000    0.0000   -0.0000   -0.0000    0.0000   -0.0000    0.0000   -0.0000   -0.0000    0.0000
       44 FE2    4f1-       0.0000    0.0000   -0.0000    0.0024    0.4130    0.0000   -0.0038    0.2934   -0.0000   -0.0000
       45 FE2    4f0        0.0015    0.0363    0.8962    0.0000    0.0000    0.1025   -0.0000    0.0000   -0.2757    0.1342
       46 FE2    4f1+       0.0000    0.0000   -0.0000    0.4130   -0.0024    0.0000   -0.2933   -0.0038   -0.0000   -0.0000
       47 FE2    4f2+       0.0000    0.0000    0.0000    0.0000    0.0000    0.0000    0.0000    0.0000    0.0000   -0.0000
       48 FE2    4f3+       0.0000    0.0000    0.0000    0.0000   -0.0000    0.0000   -0.0000   -0.0000   -0.0000   -0.0000
 
          Orbital           31        32        33        34        35        36        37        38        39        40    
          Energy            0.1841    0.1732    2.3346    1.1676    1.4275    0.2607    0.5611    0.5789    2.0055    0.6478
          Occ. No.          0.0000    0.0000    0.0000    0.0000    0.0000    0.0000    0.0000    0.0000    0.0000    0.0000
 
        1 O1     1s         0.0068    0.0042   -0.0000   -0.0000   -0.0000    0.0000   -0.0000    0.0000    0.0000   -0.0000
        2 O1     2s         0.0576    0.0401   -0.0000   -0.0000   -0.0000    0.0000   -0.0000    0.0000    0.0000   -0.0000
        3 O1     3s        -0.1623   -0.0462    0.0000    0.0000    0.0000   -0.0000    0.0000   -0.0000   -0.0000   -0.0000
        4 O1     2px       -0.0000    0.0000    0.0307    0.0011   -0.0014    0.1383    0.0000    0.0006    0.0025   -0.0380
        5 O1     3px       -0.0000    0.0000    0.2472    0.0076   -0.0100    0.9521   -0.0005   -0.0001    0.0072   -0.1640
        6 O1     2py       -0.0000   -0.0000   -0.0006    0.0988   -0.1015   -0.0017   -0.0004    0.0011    0.0102    0.0016
        7 O1     3py       -0.0000    0.0000   -0.0044    0.7106   -0.6802   -0.0115   -0.0020    0.0052    0.0411    0.0057
        8 O1     2pz       -0.0160   -0.1687    0.0000    0.0000    0.0000   -0.0000    0.0000   -0.0000   -0.0000    0.0000
        9 O1     3pz        0.1440   -1.0556    0.0000    0.0000    0.0000   -0.0000    0.0000   -0.0000   -0.0000    0.0000
       10 O1     3d2-      -0.0000    0.0000    0.0001   -0.0001    0.0001   -0.0045    0.0068    0.0319   -0.7326   -0.0637
       11 O1     3d1-       0.0000    0.0000    0.0002   -0.0165   -0.0128    0.0002   -0.0018   -0.0204    0.2525    0.0956
       12 O1     3d0        0.0735    0.0302   -0.0000   -0.0000   -0.0000    0.0000   -0.0000    0.0000    0.0000   -0.0000
       13 O1     3d1+       0.0000    0.0000   -0.0210   -0.0003   -0.0003    0.0027   -0.0034   -0.0263    0.1826    0.0104
       14 O1     3d2+       0.0000   -0.0000   -0.0000    0.0000   -0.0001    0.0005   -0.0059   -0.0290    0.0631    0.0049
       15 FE2    1s         0.0001   -0.0007    0.0000    0.0000    0.0000   -0.0000    0.0000   -0.0000   -0.0000    0.0000
       16 FE2    2s         0.0007   -0.0052    0.0000    0.0000    0.0000   -0.0000    0.0000   -0.0000   -0.0000    0.0000
       17 FE2    3s         0.0031   -0.0269    0.0000    0.0000    0.0000   -0.0000    0.0000   -0.0000   -0.0000    0.0000
       18 FE2    4s         0.0867   -0.2224    0.0000    0.0000    0.0000   -0.0000    0.0000   -0.0000   -0.0000    0.0000
       19 FE2    5s        -0.4939   -0.0739    0.0000    0.0000    0.0000   -0.0000    0.0000   -0.0000   -0.0000    0.0000
       20 FE2    2px        0.0000    0.0000    0.0002    0.0000    0.0000   -0.0002    0.0000   -0.0000   -0.0000    0.0000
[...]
 
  Total nr of CASPT2 parameters:
   Before reduction:      408969
   After  reduction:      408969
 
 The contributions to the second order correlation energy in atomic units.
-----------------------------------------------------------------------------------------------------------------------------
  IT.      VJTU        VJTI        ATVX        AIVX        VJAI        BVAT        BJAT        BJAI        TOTAL       RNORM  
-----------------------------------------------------------------------------------------------------------------------------
   1    -0.001828   -0.029087   -0.017113   -0.173395   -0.017569   -0.076181   -0.020283   -0.045616   -0.381072    0.018528
   2    -0.001829   -0.029099   -0.017686   -0.173802   -0.017637   -0.076381   -0.020617   -0.045757   -0.382808    0.005367
   3    -0.001828   -0.029101   -0.017854   -0.173940   -0.017633   -0.076373   -0.020638   -0.045771   -0.383139    0.001811
   4    -0.001828   -0.029102   -0.017839   -0.173918   -0.017626   -0.076342   -0.020604   -0.045756   -0.383014    0.000736
   5    -0.001828   -0.029102   -0.017826   -0.173903   -0.017627   -0.076343   -0.020604   -0.045755   -0.382987    0.000201
   6    -0.001828   -0.029102   -0.017825   -0.173907   -0.017627   -0.076348   -0.020607   -0.045756   -0.383000    0.000062
   7    -0.001828   -0.029102   -0.017825   -0.173909   -0.017627   -0.076348   -0.020607   -0.045757   -0.383003    0.000021
   8    -0.001828   -0.029102   -0.017825   -0.173908   -0.017627   -0.076348   -0.020607   -0.045756   -0.383002    0.000006
   9    -0.001828   -0.029102   -0.017825   -0.173908   -0.017627   -0.076348   -0.020607   -0.045756   -0.383001    0.000002
-------------------------------------------------------------------------------------------------------------------
 
  FINAL CASPT2 RESULT:
 
  Correlation energy /Case, /Symm, and sums:
 VJTU     -0.00182782 -0.00182782
 VJTIP    -0.00963747 -0.00963747
 VJTIM    -0.01946452 -0.01946452
 ATVX     -0.01782500 -0.01782500
 AIVX     -0.17390824 -0.17390824
 VJAIP    -0.01439656 -0.01439656
 VJAIM    -0.00323042 -0.00323042
 BVATP    -0.02154410 -0.02154410
 BVATM    -0.05480392 -0.05480392
 BJATP    -0.01224324 -0.01224324
 BJATM    -0.00836388 -0.00836388
 BJAIP    -0.03112383 -0.03112383
 BJAIM    -0.01463258 -0.01463258
 Summed:  -0.38300158 -0.38300158
 
      Reference energy:       -1345.4532561738
      E2 (Non-variational):      -0.3830015752
      E2 (Variational):          -0.3830015760
      Total energy:           -1345.8362577498
      Residual norm:              0.0000007878
      Reference weight:           0.93752
 
      Contributions to the CASPT2 correlation energy
      Active & Virtual Only:         -0.0941730175
      One Inactive Excited:          -0.1963431794
      Two Inactive Excited:          -0.0924853783
 
 
++ Denominators, etc.
----------------------------------------------------------------------------------------------------
 Report on small energy denominators, large coefficients, and large energy contributions.
CASE  SYMM ACTIVE-MIX  NON-ACTIVE INDICES          DENOMINATOR     RHS VALUE       COEFFICIENT     CONTRIBUTION
ATVX     1  Mu1.0001  Se1.026                      -0.07231256      0.00000000      0.00000000      0.00000000
ATVX     1  Mu1.0002  Se1.026                      -0.07224645      0.00000000      0.00000005      0.00000000
ATVX     1  Mu1.0003  Se1.026                      -0.07133968     -0.00000000     -0.00000000      0.00000000
ATVX     1  Mu1.0004  Se1.026                      -0.01118965      0.00000000     -0.00000005     -0.00000000
ATVX     1  Mu1.0005  Se1.026                      -0.00863154      0.00000000     -0.00000007     -0.00000000
ATVX     1  Mu1.0006  Se1.026                      -0.00862768      0.00000000     -0.00000000     -0.00000000
ATVX     1  Mu1.0007  Se1.026                       0.23934533     -0.00000000      0.00000000     -0.00000000
ATVX     1  Mu1.0008  Se1.026                       0.24080390     -0.00000712      0.00003077     -0.00000000
ATVX     1  Mu1.0009  Se1.026                       0.24164070     -0.00000729      0.00003133     -0.00000000
ATVX     1  Mu1.0010  Se1.026                       0.24196652     -0.00000002      0.00000009     -0.00000000
ATVX     1  Mu1.0011  Se1.026                       0.24415950     -0.00000500      0.00002213     -0.00000000
ATVX     1  Mu1.0012  Se1.026                       0.24592701     -0.00000527      0.00002260     -0.00000000
ATVX     1  Mu1.0013  Se1.026                       0.24727749     -0.00000000      0.00000000     -0.00000000
ATVX     1  Mu1.0014  Se1.026                       0.25647612      0.00000000     -0.00000000     -0.00000000
ATVX     1  Mu1.0015  Se1.026                       0.25647710      0.00000000     -0.00000000     -0.00000000
ATVX     1  Mu1.0016  Se1.026                       0.25847462     -0.00000001      0.00000011     -0.00000000
ATVX     1  Mu1.0017  Se1.026                       0.25865932     -0.00000000      0.00000000     -0.00000000
ATVX     1  Mu1.0018  Se1.026                       0.26733077      0.00000000     -0.00000000     -0.00000000
ATVX     1  Mu1.0019  Se1.026                       0.26824553     -0.00000000      0.00000000     -0.00000000
ATVX     1  Mu1.0020  Se1.026                       0.27869424     -0.00000000      0.00000003     -0.00000000
ATVX     1  Mu1.0021  Se1.026                       0.27870205     -0.00000000      0.00000000     -0.00000000
ATVX     1  Mu1.0022  Se1.026                       0.28336349     -0.00000000      0.00000001     -0.00000000
ATVX     1  Mu1.0023  Se1.026                       0.28430502     -0.00000000      0.00000000     -0.00000000
ATVX     1  Mu1.0024  Se1.026                       0.28999573     -0.00000000      0.00000000     -0.00000000
ATVX     1  Mu1.0025  Se1.026                       0.29066703     -0.00000000      0.00000000     -0.00000000
ATVX     1  Mu1.0026  Se1.026                       0.29160223      0.00000000     -0.00000000     -0.00000000
ATVX     1  Mu1.0027  Se1.026                       0.29174859      0.00000000     -0.00000000     -0.00000000
ATVX     1  Mu1.0028  Se1.026                       0.29236398     -0.00000000      0.00000000     -0.00000000
ATVX     1  Mu1.0029  Se1.026                       0.29285113      0.00000000     -0.00000000     -0.00000000
ATVX     1  Mu1.0030  Se1.026                       0.29510365      0.00019141     -0.00044799     -0.00000009
ATVX     1  Mu1.0031  Se1.026                       0.29555505      0.00098640     -0.00334104     -0.00000330
ATVX     1  Mu1.0032  Se1.026                       0.29610051      0.00026852     -0.00110825     -0.00000030
ATVX     1  Mu1.0001  Se1.027                       0.05293759      0.00000000     -0.00000001     -0.00000000
ATVX     1  Mu1.0002  Se1.027                       0.05300370      0.00000000     -0.00000000     -0.00000000
ATVX     1  Mu1.0003  Se1.027                       0.05391046      0.00000253     -0.00021440     -0.00000000
ATVX     1  Mu1.0004  Se1.027                       0.11406050     -0.00000000     -0.00000000      0.00000000
ATVX     1  Mu1.0005  Se1.027                       0.11661861     -0.00000002     -0.00000009      0.00000000
ATVX     1  Mu1.0006  Se1.027                       0.11662247      0.00011240      0.00053738      0.00000006
ATVX     1  Mu1.0001  Se1.028                       0.05313797     -0.00000000      0.00000000     -0.00000000
ATVX     1  Mu1.0002  Se1.028                       0.05320408     -0.00000264      0.00021917     -0.00000000
ATVX     1  Mu1.0003  Se1.028                       0.05411084      0.00000000     -0.00000000     -0.00000000
ATVX     1  Mu1.0004  Se1.028                       0.11426088     -0.00000000     -0.00000000      0.00000000
ATVX     1  Mu1.0005  Se1.028                       0.11681899      0.00011254      0.00053598      0.00000006
ATVX     1  Mu1.0006  Se1.028                       0.11682285      0.00000002      0.00000009      0.00000000
ATVX     1  Mu1.0001  Se1.029                       0.14496832     -0.00000000      0.00000000     -0.00000000
ATVX     1  Mu1.0002  Se1.029                       0.14503443     -0.00000000      0.00000002     -0.00000000
ATVX     1  Mu1.0003  Se1.029                       0.14594119      0.00000000     -0.00000000     -0.00000000
ATVX     1  Mu1.0004  Se1.029                       0.20609123      0.00000000     -0.00000001     -0.00000000
ATVX     1  Mu1.0005  Se1.029                       0.20864933     -0.00000000     -0.00000000      0.00000000
ATVX     1  Mu1.0006  Se1.029                       0.20865320     -0.00000000      0.00000000     -0.00000000
ATVX     1  Mu1.0001  Se1.030                       0.25465143      0.00000000     -0.00000000     -0.00000000
ATVX     1  Mu1.0002  Se1.030                       0.25471754      0.00000000     -0.00000001     -0.00000000
ATVX     1  Mu1.0003  Se1.030                       0.25562430     -0.00000000      0.00000000     -0.00000000
ATVX     1  Mu1.0214  Se1.031                       2.12278486     -0.07653473      0.03724826     -0.00285079
ATVX     1  Mu1.0215  Se1.032                       2.12280285     -0.07652531      0.03724335     -0.00285006
AIVX     1  Mu1.0098  In1.011 Se1.033               3.21564294     -0.09842241      0.03068493     -0.00302008
AIVX     1  Mu1.0099  In1.011 Se1.033               3.22229141     -0.07728013      0.02634950     -0.00203629
AIVX     1  Mu1.0169  In1.009 Se1.034               6.56950148      0.17865302     -0.02719379     -0.00485825
AIVX     1  Mu1.0169  In1.010 Se1.035               6.56983692      0.17889681     -0.02722970     -0.00487131
AIVX     1  Mu1.0027  In1.011 Se1.037               3.50149085      0.10967067     -0.03028679     -0.00332157
AIVX     1  Mu1.0028  In1.011 Se1.037               3.50149209     -0.10523475      0.02906176     -0.00305831
AIVX     1  Mu1.0059  In1.011 Se1.038               3.75143085      0.15199455     -0.03924500     -0.00596503
AIVX     1  Mu1.0029  In1.011 Se1.041               3.56067749     -0.10234822      0.02775430     -0.00284060
BVATM    1  Mu1.0001  Se1.032 Se1.031               1.99505681      0.07058644     -0.03563726     -0.00251551
BVATM    1  Mu1.0001  Se1.038 Se1.037               5.01386836     -0.12979995      0.02588827     -0.00336030
BJATP    1  Mu1.0002  In1.011 Se1.033 Se1.031       3.03307488     -0.08191435      0.02680401     -0.00219563
BJATP    1  Mu1.0001  In1.011 Se1.033 Se1.032       3.03308608      0.08191453     -0.02680399     -0.00219564
BJATM    1  Mu1.0002  In1.011 Se1.033 Se1.031       3.03307488      0.07597798     -0.02675778     -0.00203300
BJATM    1  Mu1.0001  In1.011 Se1.033 Se1.032       3.03308608     -0.07597808      0.02675774     -0.00203300
BJAIP    1  Se1.033 In1.011 Se1.033 In1.011         4.07106631      0.11453182     -0.02999743     -0.00343566
--
 
   (Skipping property calculation,
    use PROP keyword to activate)
--
 
  Total CASPT2 energies:
::    CASPT2 Root  1     Total energy:  -1345.83625775
 
  A NEW JOBIPH FILE NAMED 'JOBMIX' IS PREPARED.
********************************************************************************
--- Stop Module: caspt2 at Tue Dec 17 22:42:40 2024 /rc=_RC_ALL_IS_WELL_ ---
*** files: xmldump
    saved to directory /home/grierjones/DDCASPT2/iron_oxo_DDCASPT2/cluster/3.85
--- Module caspt2 spent 5 minutes 30 seconds ---

>>> EXPORT i = B

>>> EXPORT j = P

>>> IF (-FILE GMJ_e2_${i}_${j}.csv)

>>> COPY /tmp/3.85/GMJ_RHS_B_P.csv /home/grierjones/DDCASPT2/iron_oxo_DDCASPT2/cluster/3.85/GMJ_RHS_B_P.csv

>>> COPY /tmp/3.85/GMJ_IVECW_B_P.csv /home/grierjones/DDCASPT2/iron_oxo_DDCASPT2/cluster/3.85/GMJ_IVECW_B_P.csv

>>> COPY /tmp/3.85/GMJ_IVECX_B_P.csv /home/grierjones/DDCASPT2/iron_oxo_DDCASPT2/cluster/3.85/GMJ_IVECX_B_P.csv

>>> COPY /tmp/3.85/GMJ_IVECC2_B_P.csv /home/grierjones/DDCASPT2/iron_oxo_DDCASPT2/cluster/3.85/GMJ_IVECC2_B_P.csv

>>> COPY /tmp/3.85/GMJ_e2_B_P.csv /home/grierjones/DDCASPT2/iron_oxo_DDCASPT2/cluster/3.85/GMJ_e2_B_P.csv

>>> END FOREACH

>>> EXPORT j = M

>>> IF (-FILE GMJ_e2_${i}_${j}.csv)

>>> COPY /tmp/3.85/GMJ_RHS_B_M.csv /home/grierjones/DDCASPT2/iron_oxo_DDCASPT2/cluster/3.85/GMJ_RHS_B_M.csv

>>> COPY /tmp/3.85/GMJ_IVECW_B_M.csv /home/grierjones/DDCASPT2/iron_oxo_DDCASPT2/cluster/3.85/GMJ_IVECW_B_M.csv

>>> COPY /tmp/3.85/GMJ_IVECX_B_M.csv /home/grierjones/DDCASPT2/iron_oxo_DDCASPT2/cluster/3.85/GMJ_IVECX_B_M.csv

>>> COPY /tmp/3.85/GMJ_IVECC2_B_M.csv /home/grierjones/DDCASPT2/iron_oxo_DDCASPT2/cluster/3.85/GMJ_IVECC2_B_M.csv

>>> COPY /tmp/3.85/GMJ_e2_B_M.csv /home/grierjones/DDCASPT2/iron_oxo_DDCASPT2/cluster/3.85/GMJ_e2_B_M.csv

>>> END FOREACH

>>> END FOREACH

>>> EXPORT i = E

>>> EXPORT j = P

>>> IF (-FILE GMJ_e2_${i}_${j}.csv)

>>> COPY /tmp/3.85/GMJ_RHS_E_P.csv /home/grierjones/DDCASPT2/iron_oxo_DDCASPT2/cluster/3.85/GMJ_RHS_E_P.csv

>>> COPY /tmp/3.85/GMJ_IVECW_E_P.csv /home/grierjones/DDCASPT2/iron_oxo_DDCASPT2/cluster/3.85/GMJ_IVECW_E_P.csv

>>> COPY /tmp/3.85/GMJ_IVECX_E_P.csv /home/grierjones/DDCASPT2/iron_oxo_DDCASPT2/cluster/3.85/GMJ_IVECX_E_P.csv

>>> COPY /tmp/3.85/GMJ_IVECC2_E_P.csv /home/grierjones/DDCASPT2/iron_oxo_DDCASPT2/cluster/3.85/GMJ_IVECC2_E_P.csv

>>> COPY /tmp/3.85/GMJ_e2_E_P.csv /home/grierjones/DDCASPT2/iron_oxo_DDCASPT2/cluster/3.85/GMJ_e2_E_P.csv

>>> END FOREACH

>>> EXPORT j = M

>>> IF (-FILE GMJ_e2_${i}_${j}.csv)

>>> COPY /tmp/3.85/GMJ_RHS_E_M.csv /home/grierjones/DDCASPT2/iron_oxo_DDCASPT2/cluster/3.85/GMJ_RHS_E_M.csv

>>> COPY /tmp/3.85/GMJ_IVECW_E_M.csv /home/grierjones/DDCASPT2/iron_oxo_DDCASPT2/cluster/3.85/GMJ_IVECW_E_M.csv

>>> COPY /tmp/3.85/GMJ_IVECX_E_M.csv /home/grierjones/DDCASPT2/iron_oxo_DDCASPT2/cluster/3.85/GMJ_IVECX_E_M.csv

>>> COPY /tmp/3.85/GMJ_IVECC2_E_M.csv /home/grierjones/DDCASPT2/iron_oxo_DDCASPT2/cluster/3.85/GMJ_IVECC2_E_M.csv

>>> COPY /tmp/3.85/GMJ_e2_E_M.csv /home/grierjones/DDCASPT2/iron_oxo_DDCASPT2/cluster/3.85/GMJ_e2_E_M.csv

>>> END FOREACH

>>> END FOREACH

>>> EXPORT i = F

>>> EXPORT j = P

>>> IF (-FILE GMJ_e2_${i}_${j}.csv)

>>> COPY /tmp/3.85/GMJ_RHS_F_P.csv /home/grierjones/DDCASPT2/iron_oxo_DDCASPT2/cluster/3.85/GMJ_RHS_F_P.csv

>>> COPY /tmp/3.85/GMJ_IVECW_F_P.csv /home/grierjones/DDCASPT2/iron_oxo_DDCASPT2/cluster/3.85/GMJ_IVECW_F_P.csv

>>> COPY /tmp/3.85/GMJ_IVECX_F_P.csv /home/grierjones/DDCASPT2/iron_oxo_DDCASPT2/cluster/3.85/GMJ_IVECX_F_P.csv

>>> COPY /tmp/3.85/GMJ_IVECC2_F_P.csv /home/grierjones/DDCASPT2/iron_oxo_DDCASPT2/cluster/3.85/GMJ_IVECC2_F_P.csv

>>> COPY /tmp/3.85/GMJ_e2_F_P.csv /home/grierjones/DDCASPT2/iron_oxo_DDCASPT2/cluster/3.85/GMJ_e2_F_P.csv

>>> END FOREACH

>>> EXPORT j = M

>>> IF (-FILE GMJ_e2_${i}_${j}.csv)

>>> COPY /tmp/3.85/GMJ_RHS_F_M.csv /home/grierjones/DDCASPT2/iron_oxo_DDCASPT2/cluster/3.85/GMJ_RHS_F_M.csv

>>> COPY /tmp/3.85/GMJ_IVECW_F_M.csv /home/grierjones/DDCASPT2/iron_oxo_DDCASPT2/cluster/3.85/GMJ_IVECW_F_M.csv

>>> COPY /tmp/3.85/GMJ_IVECX_F_M.csv /home/grierjones/DDCASPT2/iron_oxo_DDCASPT2/cluster/3.85/GMJ_IVECX_F_M.csv

>>> COPY /tmp/3.85/GMJ_IVECC2_F_M.csv /home/grierjones/DDCASPT2/iron_oxo_DDCASPT2/cluster/3.85/GMJ_IVECC2_F_M.csv

>>> COPY /tmp/3.85/GMJ_e2_F_M.csv /home/grierjones/DDCASPT2/iron_oxo_DDCASPT2/cluster/3.85/GMJ_e2_F_M.csv

>>> END FOREACH

>>> END FOREACH

>>> EXPORT i = G

>>> EXPORT j = P

>>> IF (-FILE GMJ_e2_${i}_${j}.csv)

>>> COPY /tmp/3.85/GMJ_RHS_G_P.csv /home/grierjones/DDCASPT2/iron_oxo_DDCASPT2/cluster/3.85/GMJ_RHS_G_P.csv

>>> COPY /tmp/3.85/GMJ_IVECW_G_P.csv /home/grierjones/DDCASPT2/iron_oxo_DDCASPT2/cluster/3.85/GMJ_IVECW_G_P.csv

>>> COPY /tmp/3.85/GMJ_IVECX_G_P.csv /home/grierjones/DDCASPT2/iron_oxo_DDCASPT2/cluster/3.85/GMJ_IVECX_G_P.csv

>>> COPY /tmp/3.85/GMJ_IVECC2_G_P.csv /home/grierjones/DDCASPT2/iron_oxo_DDCASPT2/cluster/3.85/GMJ_IVECC2_G_P.csv

>>> COPY /tmp/3.85/GMJ_e2_G_P.csv /home/grierjones/DDCASPT2/iron_oxo_DDCASPT2/cluster/3.85/GMJ_e2_G_P.csv

>>> END FOREACH

>>> EXPORT j = M

>>> IF (-FILE GMJ_e2_${i}_${j}.csv)

>>> COPY /tmp/3.85/GMJ_RHS_G_M.csv /home/grierjones/DDCASPT2/iron_oxo_DDCASPT2/cluster/3.85/GMJ_RHS_G_M.csv

>>> COPY /tmp/3.85/GMJ_IVECW_G_M.csv /home/grierjones/DDCASPT2/iron_oxo_DDCASPT2/cluster/3.85/GMJ_IVECW_G_M.csv

>>> COPY /tmp/3.85/GMJ_IVECX_G_M.csv /home/grierjones/DDCASPT2/iron_oxo_DDCASPT2/cluster/3.85/GMJ_IVECX_G_M.csv

>>> COPY /tmp/3.85/GMJ_IVECC2_G_M.csv /home/grierjones/DDCASPT2/iron_oxo_DDCASPT2/cluster/3.85/GMJ_IVECC2_G_M.csv

>>> COPY /tmp/3.85/GMJ_e2_G_M.csv /home/grierjones/DDCASPT2/iron_oxo_DDCASPT2/cluster/3.85/GMJ_e2_G_M.csv

>>> END FOREACH

>>> END FOREACH

>>> EXPORT i = H

>>> EXPORT j = P

>>> IF (-FILE GMJ_e2_${i}_${j}.csv)

>>> COPY /tmp/3.85/GMJ_RHS_H_P.csv /home/grierjones/DDCASPT2/iron_oxo_DDCASPT2/cluster/3.85/GMJ_RHS_H_P.csv

>>> COPY /tmp/3.85/GMJ_IVECW_H_P.csv /home/grierjones/DDCASPT2/iron_oxo_DDCASPT2/cluster/3.85/GMJ_IVECW_H_P.csv

>>> COPY /tmp/3.85/GMJ_IVECX_H_P.csv /home/grierjones/DDCASPT2/iron_oxo_DDCASPT2/cluster/3.85/GMJ_IVECX_H_P.csv

>>> COPY /tmp/3.85/GMJ_IVECC2_H_P.csv /home/grierjones/DDCASPT2/iron_oxo_DDCASPT2/cluster/3.85/GMJ_IVECC2_H_P.csv

>>> COPY /tmp/3.85/GMJ_e2_H_P.csv /home/grierjones/DDCASPT2/iron_oxo_DDCASPT2/cluster/3.85/GMJ_e2_H_P.csv

>>> END FOREACH

>>> EXPORT j = M

>>> IF (-FILE GMJ_e2_${i}_${j}.csv)

>>> COPY /tmp/3.85/GMJ_RHS_H_M.csv /home/grierjones/DDCASPT2/iron_oxo_DDCASPT2/cluster/3.85/GMJ_RHS_H_M.csv

>>> COPY /tmp/3.85/GMJ_IVECW_H_M.csv /home/grierjones/DDCASPT2/iron_oxo_DDCASPT2/cluster/3.85/GMJ_IVECW_H_M.csv

>>> COPY /tmp/3.85/GMJ_IVECX_H_M.csv /home/grierjones/DDCASPT2/iron_oxo_DDCASPT2/cluster/3.85/GMJ_IVECX_H_M.csv

>>> COPY /tmp/3.85/GMJ_IVECC2_H_M.csv /home/grierjones/DDCASPT2/iron_oxo_DDCASPT2/cluster/3.85/GMJ_IVECC2_H_M.csv

>>> COPY /tmp/3.85/GMJ_e2_H_M.csv /home/grierjones/DDCASPT2/iron_oxo_DDCASPT2/cluster/3.85/GMJ_e2_H_M.csv

>>> END FOREACH

>>> END FOREACH

>>> EXPORT i = A

>>> IF (-FILE GMJ_e2_$i.csv)

>>> COPY /tmp/3.85/GMJ_RHS_A.csv /home/grierjones/DDCASPT2/iron_oxo_DDCASPT2/cluster/3.85/GMJ_RHS_A.csv

>>> COPY /tmp/3.85/GMJ_IVECW_A.csv /home/grierjones/DDCASPT2/iron_oxo_DDCASPT2/cluster/3.85/GMJ_IVECW_A.csv

>>> COPY /tmp/3.85/GMJ_IVECX_A.csv /home/grierjones/DDCASPT2/iron_oxo_DDCASPT2/cluster/3.85/GMJ_IVECX_A.csv

>>> COPY /tmp/3.85/GMJ_IVECC2_A.csv /home/grierjones/DDCASPT2/iron_oxo_DDCASPT2/cluster/3.85/GMJ_IVECC2_A.csv

>>> COPY /tmp/3.85/GMJ_e2_A.csv /home/grierjones/DDCASPT2/iron_oxo_DDCASPT2/cluster/3.85/GMJ_e2_A.csv

>>> END FOREACH

>>> EXPORT i = C

>>> IF (-FILE GMJ_e2_$i.csv)

>>> COPY /tmp/3.85/GMJ_RHS_C.csv /home/grierjones/DDCASPT2/iron_oxo_DDCASPT2/cluster/3.85/GMJ_RHS_C.csv

>>> COPY /tmp/3.85/GMJ_IVECW_C.csv /home/grierjones/DDCASPT2/iron_oxo_DDCASPT2/cluster/3.85/GMJ_IVECW_C.csv

>>> COPY /tmp/3.85/GMJ_IVECX_C.csv /home/grierjones/DDCASPT2/iron_oxo_DDCASPT2/cluster/3.85/GMJ_IVECX_C.csv

>>> COPY /tmp/3.85/GMJ_IVECC2_C.csv /home/grierjones/DDCASPT2/iron_oxo_DDCASPT2/cluster/3.85/GMJ_IVECC2_C.csv

>>> COPY /tmp/3.85/GMJ_e2_C.csv /home/grierjones/DDCASPT2/iron_oxo_DDCASPT2/cluster/3.85/GMJ_e2_C.csv

>>> END FOREACH

>>> EXPORT i = D

>>> IF (-FILE GMJ_e2_$i.csv)

>>> COPY /tmp/3.85/GMJ_RHS_D.csv /home/grierjones/DDCASPT2/iron_oxo_DDCASPT2/cluster/3.85/GMJ_RHS_D.csv

>>> COPY /tmp/3.85/GMJ_IVECW_D.csv /home/grierjones/DDCASPT2/iron_oxo_DDCASPT2/cluster/3.85/GMJ_IVECW_D.csv

>>> COPY /tmp/3.85/GMJ_IVECX_D.csv /home/grierjones/DDCASPT2/iron_oxo_DDCASPT2/cluster/3.85/GMJ_IVECX_D.csv

>>> COPY /tmp/3.85/GMJ_IVECC2_D.csv /home/grierjones/DDCASPT2/iron_oxo_DDCASPT2/cluster/3.85/GMJ_IVECC2_D.csv

>>> COPY /tmp/3.85/GMJ_e2_D.csv /home/grierjones/DDCASPT2/iron_oxo_DDCASPT2/cluster/3.85/GMJ_e2_D.csv

>>> END FOREACH

.########################.
.# Non-zero return code #.
.########################.

    Timing: Wall=449.34 User=445.76 System=3.43
************************************
*** WorkDir at /tmp/3.85 cleaned ***
************************************
