[Molden Format]
[N_Atoms]
                     2
[Atoms] (AU)
C1          1      6           0.00000000      0.00000000      0.00000000
C2          2      6           0.00000000      0.00000000      4.91328792
[Charge] (Mulliken)
   1.00363781529044     
  0.996362184709545     
[GTO] (AU)
   1
   s  14
  5.055750100E+04  1.128874000E-04
  7.524785600E+03  5.295373000E-04
  1.694327600E+03  2.450038300E-03
  4.728227900E+02  1.005398470E-02
  1.517107500E+02  3.545398060E-02
  5.391874600E+01  1.044071086E-01
  2.065931100E+01  2.412894918E-01
  8.383976000E+00  3.834225483E-01
  3.577015000E+00  3.078514393E-01
  1.547118000E+00  6.872442990E-02
  6.130130000E-01  2.224445000E-04
  2.460680000E-01  1.976748900E-03
  9.908700000E-02  2.057859400E-03
  3.468000000E-02  4.182020000E-04
   s  14
  5.055750100E+04 -2.507420000E-05
  7.524785600E+03 -1.175945000E-04
  1.694327600E+03 -5.456275000E-04
  4.728227900E+02 -2.245077100E-03
  1.517107500E+02 -8.043471800E-03
  5.391874600E+01 -2.442588710E-02
  2.065931100E+01 -6.136791180E-02
  8.383976000E+00 -1.177767835E-01
  3.577015000E+00 -1.550487783E-01
  1.547118000E+00 -1.933316860E-02
  6.130130000E-01  3.996930678E-01
  2.460680000E-01  5.589420949E-01
  9.908700000E-02  1.711195023E-01
  3.468000000E-02  7.456244600E-03
   p   9
  8.333315500E+01  1.344656000E-03
  1.955761100E+01  1.023555500E-02
  6.080365000E+00  4.520067100E-02
  2.179317000E+00  1.410756198E-01
  8.651500000E-01  3.047388085E-01
  3.619440000E-01  3.995281011E-01
  1.547400000E-01  2.719163432E-01
  6.542900000E-02  5.857669330E-02
  2.290000000E-02 -1.263813000E-04
 
   2
   s  14
  5.055750100E+04  1.128874000E-04
  7.524785600E+03  5.295373000E-04
  1.694327600E+03  2.450038300E-03
  4.728227900E+02  1.005398470E-02
  1.517107500E+02  3.545398060E-02
  5.391874600E+01  1.044071086E-01
  2.065931100E+01  2.412894918E-01
  8.383976000E+00  3.834225483E-01
  3.577015000E+00  3.078514393E-01
  1.547118000E+00  6.872442990E-02
  6.130130000E-01  2.224445000E-04
  2.460680000E-01  1.976748900E-03
  9.908700000E-02  2.057859400E-03
  3.468000000E-02  4.182020000E-04
   s  14
  5.055750100E+04 -2.507420000E-05
  7.524785600E+03 -1.175945000E-04
  1.694327600E+03 -5.456275000E-04
  4.728227900E+02 -2.245077100E-03
  1.517107500E+02 -8.043471800E-03
  5.391874600E+01 -2.442588710E-02
  2.065931100E+01 -6.136791180E-02
  8.383976000E+00 -1.177767835E-01
  3.577015000E+00 -1.550487783E-01
  1.547118000E+00 -1.933316860E-02
  6.130130000E-01  3.996930678E-01
  2.460680000E-01  5.589420949E-01
  9.908700000E-02  1.711195023E-01
  3.468000000E-02  7.456244600E-03
   p   9
  8.333315500E+01  1.344656000E-03
  1.955761100E+01  1.023555500E-02
  6.080365000E+00  4.520067100E-02
  2.179317000E+00  1.410756198E-01
  8.651500000E-01  3.047388085E-01
  3.619440000E-01  3.995281011E-01
  1.547400000E-01  2.719163432E-01
  6.542900000E-02  5.857669330E-02
  2.290000000E-02 -1.263813000E-04
 
[MO]
Sym=     1a  
Ene=   -12.2440
Spin= Alpha
Occup=    2.00000
   1         0.99980357
   2        -0.01661713
   3        -0.00000000
   4         0.00000000
   5        -0.00082071
   6         0.01074950
   7         0.00074415
   8        -0.00000000
   9         0.00000000
  10         0.00027800
Sym=     2a  
Ene=   -12.2420
Spin= Alpha
Occup=    2.00000
   1        -0.01075427
   2        -0.00001565
   3        -0.00000000
   4         0.00000000
   5        -0.00012176
   6         0.99993344
   7        -0.00458550
   8        -0.00000000
   9         0.00000000
  10         0.00014424
Sym=     3a  
Ene=    -1.3967
Spin= Alpha
Occup=    2.00000
   1        -0.00347746
   2        -0.00406993
   3        -0.00000000
   4         0.00000000
   5         0.01915869
   6         0.00445126
   7         0.99576898
   8        -0.00000000
   9         0.00000000
  10        -0.06160149
Sym=     4a  
Ene=    -0.9242
Spin= Alpha
Occup=    2.00000
   1        -0.00000000
   2         0.00000001
   3        -0.26200807
   4         0.63752362
   5         0.00000006
   6        -0.00000000
   7        -0.00000002
   8        -0.26331167
   9         0.64069558
  10        -0.00000006
Sym=     5a  
Ene=    -0.6021
Spin= Alpha
Occup=    0.04848
   1        -0.00000000
   2         0.00000000
   3         0.92549415
   4         0.38035757
   5        -0.00000000
   6         0.00000000
   7         0.00000000
   8        -0.01414496
   9        -0.00581327
  10         0.00000000
Sym=     6a  
Ene=    -0.0014
Spin= Alpha
Occup=    1.95152
   1        -0.01681709
   2        -0.99982536
   3        -0.00000001
   4         0.00000001
   5        -0.05788535
   6         0.00386260
   7         0.08476509
   8        -0.00000000
   9         0.00000001
  10         0.01119239
Sym=     7a  
Ene=    -0.7046
Spin= Alpha
Occup=    0.00000
   1        -0.00000000
   2        -0.00000001
   3         0.27599194
   4        -0.67154947
   5        -0.00000005
   6         0.00000000
   7         0.00000001
   8        -0.27474851
   9         0.66852392
  10        -0.00000005
Sym=     8a  
Ene=    -0.6492
Spin= Alpha
Occup=    0.00000
   1         0.00558117
   2         0.12580626
   3        -0.00000002
   4         0.00000005
   5        -0.66483112
   6         0.00566278
   7         0.13077364
   8        -0.00000002
   9         0.00000005
  10         0.65826242
Sym=     9a  
Ene=    -0.5895
Spin= Alpha
Occup=    0.00000
   1        -0.00000000
   2         0.00000000
   3        -0.02959116
   4        -0.01216131
   5         0.00000000
   6         0.00000000
   7         0.00000000
   8         0.92585905
   9         0.38050754
  10         0.00000000
Sym=    10a  
Ene=    -0.5349
Spin= Alpha
Occup=    0.00000
   1        -0.00714014
   2        -0.06988023
   3        -0.00000002
   4         0.00000004
   5        -0.76995205
   6         0.00711653
   7         0.06920694
   8         0.00000002
   9        -0.00000004
  10        -0.77544536
