[Molden Format]
[N_Atoms]
                     2
[Atoms] (AU)
C1          1      6           0.00000000      0.00000000      0.00000000
C2          2      6           0.00000000      0.00000000      4.91328792
[Charge] (Mulliken)
 -3.178430207890770E-004
  3.178430207411154E-004
[GTO] (AU)
   1
   s  14
  5.055750100E+04  1.128874000E-04
  7.524785600E+03  5.295373000E-04
  1.694327600E+03  2.450038300E-03
  4.728227900E+02  1.005398470E-02
  1.517107500E+02  3.545398060E-02
  5.391874600E+01  1.044071086E-01
  2.065931100E+01  2.412894918E-01
  8.383976000E+00  3.834225483E-01
  3.577015000E+00  3.078514393E-01
  1.547118000E+00  6.872442990E-02
  6.130130000E-01  2.224445000E-04
  2.460680000E-01  1.976748900E-03
  9.908700000E-02  2.057859400E-03
  3.468000000E-02  4.182020000E-04
   s  14
  5.055750100E+04 -2.507420000E-05
  7.524785600E+03 -1.175945000E-04
  1.694327600E+03 -5.456275000E-04
  4.728227900E+02 -2.245077100E-03
  1.517107500E+02 -8.043471800E-03
  5.391874600E+01 -2.442588710E-02
  2.065931100E+01 -6.136791180E-02
  8.383976000E+00 -1.177767835E-01
  3.577015000E+00 -1.550487783E-01
  1.547118000E+00 -1.933316860E-02
  6.130130000E-01  3.996930678E-01
  2.460680000E-01  5.589420949E-01
  9.908700000E-02  1.711195023E-01
  3.468000000E-02  7.456244600E-03
   p   9
  8.333315500E+01  1.344656000E-03
  1.955761100E+01  1.023555500E-02
  6.080365000E+00  4.520067100E-02
  2.179317000E+00  1.410756198E-01
  8.651500000E-01  3.047388085E-01
  3.619440000E-01  3.995281011E-01
  1.547400000E-01  2.719163432E-01
  6.542900000E-02  5.857669330E-02
  2.290000000E-02 -1.263813000E-04
 
   2
   s  14
  5.055750100E+04  1.128874000E-04
  7.524785600E+03  5.295373000E-04
  1.694327600E+03  2.450038300E-03
  4.728227900E+02  1.005398470E-02
  1.517107500E+02  3.545398060E-02
  5.391874600E+01  1.044071086E-01
  2.065931100E+01  2.412894918E-01
  8.383976000E+00  3.834225483E-01
  3.577015000E+00  3.078514393E-01
  1.547118000E+00  6.872442990E-02
  6.130130000E-01  2.224445000E-04
  2.460680000E-01  1.976748900E-03
  9.908700000E-02  2.057859400E-03
  3.468000000E-02  4.182020000E-04
   s  14
  5.055750100E+04 -2.507420000E-05
  7.524785600E+03 -1.175945000E-04
  1.694327600E+03 -5.456275000E-04
  4.728227900E+02 -2.245077100E-03
  1.517107500E+02 -8.043471800E-03
  5.391874600E+01 -2.442588710E-02
  2.065931100E+01 -6.136791180E-02
  8.383976000E+00 -1.177767835E-01
  3.577015000E+00 -1.550487783E-01
  1.547118000E+00 -1.933316860E-02
  6.130130000E-01  3.996930678E-01
  2.460680000E-01  5.589420949E-01
  9.908700000E-02  1.711195023E-01
  3.468000000E-02  7.456244600E-03
   p   9
  8.333315500E+01  1.344656000E-03
  1.955761100E+01  1.023555500E-02
  6.080365000E+00  4.520067100E-02
  2.179317000E+00  1.410756198E-01
  8.651500000E-01  3.047388085E-01
  3.619440000E-01  3.995281011E-01
  1.547400000E-01  2.719163432E-01
  6.542900000E-02  5.857669330E-02
  2.290000000E-02 -1.263813000E-04
 
[MO]
Sym=     1a  
Ene=   -11.2460
Spin= Alpha
Occup=    2.00000
   1        -0.99997277
   2         0.00239036
   3         0.00000000
   4         0.00000000
   5        -0.00010618
   6         0.00757123
   7         0.00026447
   8         0.00000000
   9         0.00000000
  10        -0.00033186
Sym=     2a  
Ene=   -11.2450
Spin= Alpha
Occup=    2.00000
   1         0.00754239
   2         0.00045916
   3        -0.00000000
   4         0.00000000
   5        -0.00071429
   6         0.99985745
   7        -0.01533374
   8         0.00000000
   9        -0.00000000
  10        -0.00005331
Sym=     3a  
Ene=    -0.6855
Spin= Alpha
Occup=    2.00000
   1         0.00222283
   2         0.99658874
   3        -0.00000000
   4         0.00000000
   5         0.00590295
   6        -0.00303619
   7        -0.00652289
   8         0.00000000
   9        -0.00000001
  10        -0.02864753
Sym=     4a  
Ene=    -0.3233
Spin= Alpha
Occup=    2.00000
   1         0.00000000
   2         0.00000000
   3         0.98062549
   4         0.17619771
   5        -0.00000002
   6         0.00000000
   7         0.00000000
   8         0.04986757
   9         0.00877005
  10         0.00000000
Sym=     5a  
Ene=    -0.3229
Spin= Alpha
Occup=    2.00000
   1         0.00000000
   2         0.00000003
   3        -0.00880513
   4         0.05006498
   5        -0.00000003
   6         0.00000000
   7        -0.00000001
   8        -0.17619807
   9         0.98060548
  10         0.00000014
Sym=     6a  
Ene=    -0.6739
Spin= Alpha
Occup=    1.95417
   1        -0.00318455
   2        -0.06706646
   3         0.00000000
   4        -0.00000000
   5         0.02912493
   6         0.01536730
   7         0.99859321
   8        -0.00000000
   9         0.00000001
  10        -0.00372400
Sym=     7a  
Ene=     0.0003
Spin= Alpha
Occup=    0.04583
   1         0.00890070
   2         0.14980691
   3         0.00000000
   4         0.00000000
   5         0.00563045
   6        -0.00049170
   7        -0.00168089
   8        -0.00000006
   9        -0.00000016
  10         1.00766373
Sym=     8a  
Ene=     0.1320
Spin= Alpha
Occup=    0.00000
   1        -0.00000000
   2        -0.00000000
   3        -0.17684796
   4         0.98406077
   5         0.00000003
   6        -0.00000000
   7        -0.00000000
   8         0.01756029
   9        -0.09640345
  10        -0.00000001
Sym=     9a  
Ene=     0.1323
Spin= Alpha
Occup=    0.00000
   1        -0.00000000
   2        -0.00000001
   3         0.09620683
   4         0.01752476
   5         0.00000029
   6        -0.00000000
   7        -0.00000004
   8        -0.98407009
   9        -0.17685358
  10        -0.00000005
Sym=    10a  
Ene=     0.1538
Spin= Alpha
Occup=    0.00000
   1        -0.00177037
   2        -0.02277840
   3         0.00000001
   4         0.00000002
   5        -1.01864110
   6         0.00905613
   7         0.15226601
   8        -0.00000027
   9        -0.00000008
  10        -0.14941275
