[Molden Format]
[N_Atoms]
                     2
[Atoms] (AU)
H1          1      1           0.00000000      0.00000000      0.00000000
LI2         2      3           0.00000000      0.00000000      3.40150702
[Charge] (Mulliken)
  0.999871031679587     
   1.00012896832041     
[GTO] (AU)
   1
   s   8
  1.886144500E+02  9.638500027E-04
  2.827659600E+01  7.491960021E-03
  6.424830000E+00  3.759541011E-02
  1.815041000E+00  1.433949804E-01
  5.910630000E-01  3.486363010E-01
  2.121490000E-01  4.382973612E-01
  7.989100000E-02  1.651066105E-01
  2.796200000E-02  2.102287006E-02
 
   2
   s  14
  9.497934400E+03  9.668999974E-05
  1.416811200E+03  6.087099984E-04
  3.214599400E+02  3.101519992E-03
  9.112416300E+01  1.266904997E-02
  2.999989100E+01  4.248012989E-02
  1.101763100E+01  1.150183297E-01
  4.372801000E+00  2.398650094E-01
  1.831256000E+00  3.584300090E-01
  8.022610000E-01  3.048527792E-01
  3.626480000E-01  8.824261976E-02
  1.139950000E-01 -8.445899977E-04
  5.123700000E-02 -7.943959979E-03
  2.246800000E-02 -3.764419990E-03
  7.860000000E-03 -8.868999976E-05
   s  14
  9.497934400E+03 -1.244999993E-05
  1.416811200E+03 -7.838999954E-05
  3.214599400E+02 -4.007099976E-04
  9.112416300E+01 -1.645249990E-03
  2.999989100E+01 -5.634599967E-03
  1.101763100E+01 -1.590780991E-02
  4.372801000E+00 -3.612581979E-02
  1.831256000E+00 -6.459927962E-02
  8.022610000E-01 -1.008321794E-01
  3.626480000E-01 -9.757613942E-02
  1.139950000E-01  2.301215886E-01
  5.123700000E-02  6.102389764E-01
  2.246800000E-02  2.849406083E-01
  7.860000000E-03  4.026899976E-03
   p   9
  1.311950400E+01  1.524940000E-03
  3.077424200E+00  8.314830000E-03
  1.098800500E+00  1.933203000E-02
  4.357784000E-01  4.934293000E-02
  1.802432000E-01  1.623554000E-01
  7.613330000E-02  3.847505400E-01
  3.254650000E-02  4.336100400E-01
  1.401820000E-02  1.287005900E-01
  4.906400000E-03 -1.018520000E-03
 
[MO]
Sym=     1a  
Ene=    -3.0875
Spin= Alpha
Occup=    1.99999
   1         0.00096427
   2         0.99985997
   3         0.01179770
   4         0.00000000
   5        -0.00000000
   6        -0.00354070
Sym=     2a  
Ene=    -0.4452
Spin= Alpha
Occup=    0.00001
   1         0.06508776
   2         0.00852237
   3        -1.02273732
   4        -0.00000000
   5         0.00000000
   6         0.10326110
Sym=     3a  
Ene=    -0.7019
Spin= Alpha
Occup=    0.00000
   1        -1.07554120
   2         0.06688472
   3         0.43892857
   4         0.00000000
   5        -0.00000000
   6         0.03772916
Sym=     4a  
Ene=    -0.3305
Spin= Alpha
Occup=    0.00000
   1        -0.00000000
   2         0.00000000
   3         0.00000000
   4        -0.10973472
   5        -0.99396091
   6        -0.00000000
Sym=     5a  
Ene=    -0.3305
Spin= Alpha
Occup=    0.00000
   1         0.00000000
   2        -0.00000000
   3        -0.00000000
   4         0.99396091
   5        -0.10973472
   6        -0.00000000
Sym=     6a  
Ene=    -0.2483
Spin= Alpha
Occup=    0.00000
   1         0.72788164
   2        -0.04148919
   3        -0.21051101
   4         0.00000000
   5        -0.00000000
   6         1.17883313
