   This run of MOLCAS is using the pymolcas driver

                             OPE
                             OPE          NMOL  CASOP  ENMOLC A   SO
                 OPE        NMOLC        AS  OP EN  MO LC     AS  OP
                OPENM       OL CA        SO  PE NM  OL CA     SOP EN
                OP EN      MO   LC       AS  OP ENMOL  CASO   PENMOL
                OP  EN     MO   LC       AS  OP EN     MO     LC ASO
               OP   E  NMOL  C  AS       OP  EN MO     LC     AS  OP
               OP  E   NMO   LC AS        OPEN  MO     LCASOP EN   M
               O  PEN   MO  LCA  SO
            OPE   NMO   L   CAS    OP
        OPENMOL  CASOP     ENMOL   CASOPE
     OPENMOLCA   SOPENMOLCASOPEN   MOLCASOPE
    OPENMOLCAS   OP           EN   MOL    CAS
    OPENMOLCAS       OP  ENM        O     LCA
    OPENMOLCAS    OPEN  MOLCASO     P  E  NMO
    OPENMOLCAS     OP               E  N  MOL
    OPENMOLCA   SO           PENM   O  L  CAS    OPEN    MO    LCAS
    OPENMOLCA   SOP           ENM   O  L  CAS   OP  EN  MOLC  AS   O
    OPENMOLCA   SOPE           NM      O  LCA   S      OP  EN MO
    OPENMOLC                AS         O  PEN   M      OL  CA  SOPE
    OPENMO        LCASOPE  NMOL        C  ASO   P      ENMOLC     AS
    OPE     NMO      LCA  SO     P     E   NM   OL  CA SO  PE N   MO
          OPENMOLCA            SOPE   NMO        LCAS  O    P  ENMO
     OPENMOLCASOPENMOLCASOPENMOLCASOPENMOLCA
        OPENMOLCASOPENMOLCASOPENMOLCASOPE
            OPENMOLCASOPENMOLCASOPENM
               OPENMOLCASOPENMOLCA        version: ea724fe96-dirty
                   OPENMOLCASO
                       OPE                tag:

 OpenMolcas is free software; you can redistribute it and/or modify it
 under the terms of the GNU Lesser General Public License version 2.1.
 OpenMolcas is distributed in the hope that it will be useful, but it
 is provided "as is" and without any express or implied warranties.
 For more details see the full text of the license in the file
 LICENSE or in <http://www.gnu.org/licenses/>.

                 Copyright (C) The OpenMolcas Authors
           For the author list and the recommended citation,
                   consult the file CONTRIBUTORS.md

           *************************************************
           * pymolcas version py2.28                       *
           *   build c4a6d18ded8cb6cad61d2372a9abd97c      *
           *   (after the EMIL interpreter by V. Veryazov) *
           *************************************************

configuration info
------------------
C Compiler ID: Intel
C flags: -std=gnu99
Fortran Compiler ID: Intel
Fortran flags: -fpp -i8 -r8 -heap-arrays
Definitions: _MOLCAS_;_I8_;_LINUX_
Parallel: OFF (GA=OFF)


   ----------------------------------------------------------------------------------
  |
  |              Project: H10_2.52
  |       Submitted from: /home/grierjones/DDCASPT2/hydrogen_comps/H10_chain/H10_2.52
  |         Scratch area: /tmp/H10_2.52
  |      Save outputs to: /home/grierjones/DDCASPT2/hydrogen_comps/H10_chain/H10_2.52
  |               Molcas: /home/grierjones/Test/build
  |
  | Scratch area is empty
  |
  |       MOLCAS_DRIVER = /usr/local/pymolcas
  | MOLCAS_KEEP_WORKDIR = NO
  |  MOLCAS_NEW_WORKDIR = YES
  |       MOLCAS_NPROCS = 1
  |        MOLCAS_PRINT = NORMAL
  |       MOLCAS_SOURCE = /home/grierjones/Test/build
  |    MOLCAS_STRUCTURE = 0
  |
   ----------------------------------------------------------------------------------

++ ---------   Input file   ---------

&GATEWAY
coord=H10_2.52.xyz
Basis = ANO-RCC-VDZP
Group = nosymm
Expert
End of Input

&SEWARD
End of Input

&SCF

>>> COPY $WorkDir/H10_2.52.scf.h5 $CurrDir/

&RASSCF
Title= RASSCF
FileOrb
/home/grierjones/DDCASPT2/hydrogen_comps/H10_chain/H10_2.49/H10_2.49.RasOrb
NACTEL
10 0 0
Inactive
0
RAS2
10
Symmetry
1
Spin
1
orblisting
all
ITERation
300 200

>>> COPY $WorkDir/H10_2.52.rasscf.h5 $CurrDir/

>>> COPY $WorkDir/GMJ_Fock_MO.csv $CurrDir/H10_2.52.GMJ_Fock_MO.csv

>>> COPY $WorkDir/GMJ_PT2_Fock_MO.csv $CurrDir/H10_2.52.GMJ_PT2_Fock_MO.csv

&MOTRA
Frozen=0
LUMORB

>>> COPY $WorkDir/GMJ_one_int_indx.csv $CurrDir/H10_2.52.GMJ_one_int_indx.csv

>>> COPY $WorkDir/GMJ_one_int.csv $CurrDir/H10_2.52.GMJ_one_int.csv

>>> COPY $WorkDir/GMJ_two_int_indx.csv $CurrDir/H10_2.52.GMJ_two_int_indx.csv

>>> COPY $WorkDir/GMJ_two_int.csv $CurrDir/H10_2.52.GMJ_two_int.csv

&CASPT2
Frozen
0
MAXITER
50

>>> FOREACH i IN (B,E,F,G,H)

  >>> FOREACH j IN (P,M)

    >>> IF (-FILE GMJ_e2_${i}_${j}.csv)

      >>> COPY $WorkDir/GMJ_RHS_${i}_${j}.csv $CurrDir/GMJ_RHS_${i}_${j}.csv

      >>> COPY $WorkDir/GMJ_IVECW_${i}_${j}.csv $CurrDir/GMJ_IVECW_${i}_${j}.csv

      >>> COPY $WorkDir/GMJ_IVECX_${i}_${j}.csv $CurrDir/GMJ_IVECX_${i}_${j}.csv

      >>> COPY $WorkDir/GMJ_IVECC2_${i}_${j}.csv $CurrDir/GMJ_IVECC2_${i}_${j}.csv

      >>> COPY $WorkDir/GMJ_e2_${i}_${j}.csv $CurrDir/GMJ_e2_${i}_${j}.csv

    >>> END IF

  >>> END FOREACH

>>> END FOREACH

>>> FOREACH i IN (A,C,D)

  >>> IF (-FILE GMJ_e2_$i.csv)

    >>> COPY $WorkDir/GMJ_RHS_$i.csv $CurrDir/GMJ_RHS_$i.csv

    >>> COPY $WorkDir/GMJ_IVECW_$i.csv $CurrDir/GMJ_IVECW_$i.csv

    >>> COPY $WorkDir/GMJ_IVECX_$i.csv $CurrDir/GMJ_IVECX_$i.csv

    >>> COPY $WorkDir/GMJ_IVECC2_$i.csv $CurrDir/GMJ_IVECC2_$i.csv

    >>> COPY $WorkDir/GMJ_e2_$i.csv $CurrDir/GMJ_e2_$i.csv

  >>> END IF

>>> END FOREACH

-- ----------------------------------

--- Start Module: gateway at Mon Nov 18 18:29:23 2024 ---
 
()()()()()()()()()()()()()()()()()()()()()()()()()()()()()()()()()()()()()()()()()()()()()()()()()()

                                              &GATEWAY

                                   only a single process is used
                       available to each process: 2.0 GB of memory, 1 thread?
()()()()()()()()()()()()()()()()()()()()()()()()()()()()()()()()()()()()()()()()()()()()()()()()()()
 
 ###############################################################################
 ###############################################################################
 ###                                                                         ###
 ###                                                                         ###
 ###                                                                         ###
 ###    WARNING: EXPERT option is ON!                                        ###
 ###                                                                         ###
 ###                                                                         ###
 ###############################################################################
 ###############################################################################
 
++    Symmetry information:
      ---------------------
 
                    Character Table for C1 
 
                             E  
                    a        1  x, y, xy, Rz, z, xz, Ry, yz, Rx, I
--
 
 
++    Basis set information:
      ----------------------
 
 
      Basis set label: H.ANO-RCC...2S1P.
 
      Electronic valence basis set:
      ------------------
      Associated Effective Charge   1.000000 au
      Associated Actual Charge      1.000000 au
      Nuclear Model: Point charge
 
      Shell  nPrim  nBasis  Cartesian Spherical Contaminant
         s       8       2        X                  
         p       4       1        X                  
--
 
 
++    Molecular structure info:
      -------------------------
 
                    ************************************************ 
                    **** Cartesian Coordinates / Bohr, Angstrom **** 
                    ************************************************ 
 
     Center  Label                x              y              z                     x              y              z
        1      H1               0.000000       0.000000       0.000000              0.000000       0.000000       0.000000
        2      H2               0.000000       0.000000       4.752948              0.000000       0.000000       2.515152
        3      H3               0.000000       0.000000       9.505895              0.000000       0.000000       5.030303
        4      H4               0.000000       0.000000      14.258843              0.000000       0.000000       7.545455
        5      H5               0.000000       0.000000      19.011790              0.000000       0.000000      10.060606
        6      H6               0.000000       0.000000      23.764738              0.000000       0.000000      12.575758
        7      H7               0.000000       0.000000      28.517685              0.000000       0.000000      15.090909
        8      H8               0.000000       0.000000      33.270633              0.000000       0.000000      17.606061
        9      H9               0.000000       0.000000      38.023580              0.000000       0.000000      20.121212
       10      H10              0.000000       0.000000      42.776528              0.000000       0.000000      22.636364
 
                    *************************************** 
                    *    InterNuclear Distances / Bohr    * 
                    *************************************** 
 
               1 H1            2 H2            3 H3            4 H4            5 H5            6 H6    
    1 H1       0.000000
    2 H2       4.752948        0.000000
    3 H3       9.505895        4.752947        0.000000
    4 H4      14.258843        9.505895        4.752948        0.000000
    5 H5      19.011790       14.258842        9.505895        4.752947        0.000000
    6 H6      23.764738       19.011790       14.258843        9.505895        4.752948        0.000000
    7 H7      28.517685       23.764737       19.011790       14.258842        9.505895        4.752947
    8 H8      33.270633       28.517685       23.764738       19.011790       14.258843        9.505895
    9 H9      38.023580       33.270632       28.517685       23.764737       19.011790       14.258842
   10 H10     42.776528       38.023580       33.270633       28.517685       23.764738       19.011790
 
               7 H7            8 H8            9 H9           10 H10   
    7 H7       0.000000
    8 H8       4.752948        0.000000
    9 H9       9.505895        4.752947        0.000000
   10 H10     14.258843        9.505895        4.752948        0.000000
 
                    ******************************************* 
                    *    InterNuclear Distances / Angstrom    * 
                    ******************************************* 
 
               1 H1            2 H2            3 H3            4 H4            5 H5            6 H6    
    1 H1       0.000000
    2 H2       2.515152        0.000000
    3 H3       5.030303        2.515151        0.000000
    4 H4       7.545455        5.030303        2.515152        0.000000
    5 H5      10.060606        7.545454        5.030303        2.515151        0.000000
    6 H6      12.575758       10.060606        7.545455        5.030303        2.515152        0.000000
    7 H7      15.090909       12.575757       10.060606        7.545454        5.030303        2.515151
    8 H8      17.606061       15.090909       12.575758       10.060606        7.545455        5.030303
    9 H9      20.121212       17.606060       15.090909       12.575757       10.060606        7.545454
   10 H10     22.636364       20.121212       17.606061       15.090909       12.575758       10.060606
 
               7 H7            8 H8            9 H9           10 H10   
    7 H7       0.000000
    8 H8       2.515152        0.000000
    9 H9       5.030303        2.515151        0.000000
   10 H10      7.545455        5.030303        2.515152        0.000000
--
 
 
            Nuclear Potential Energy              4.05846736 au
 
 ###############################################################################
 ###############################################################################
 ###                                                                         ###
 ###                                                                         ###
 ###    There were warnings during the execution                             ###
 ###    Please, check the output with care!                                  ###
 ###                                                                         ###
 ###                                                                         ###
 ###############################################################################
 ###############################################################################
--- Stop Module: gateway at Mon Nov 18 18:29:23 2024 /rc=_RC_ALL_IS_WELL_ ---
*** files: xmldump
    saved to directory /home/grierjones/DDCASPT2/hydrogen_comps/H10_chain/H10_2.52

--- Start Module: seward at Mon Nov 18 18:29:23 2024 ---
 
()()()()()()()()()()()()()()()()()()()()()()()()()()()()()()()()()()()()()()()()()()()()()()()()()()

                                              &SEWARD

                                   only a single process is used
                       available to each process: 2.0 GB of memory, 1 thread?
()()()()()()()()()()()()()()()()()()()()()()()()()()()()()()()()()()()()()()()()()()()()()()()()()()
 
 ###############################################################################
 ###############################################################################
 ###                                                                         ###
 ###                                                                         ###
 ###                                                                         ###
 ###    WARNING: EXPERT option is ON!                                        ###
 ###                                                                         ###
 ###                                                                         ###
 ###############################################################################
 ###############################################################################
               SEWARD will generate:
                  Multipole Moment integrals up to order  2
                  Kinetic Energy integrals
                  Nuclear Attraction integrals (point charge)
                  One-Electron Hamiltonian integrals
                  Velocity integrals
                  Relativistic Douglas-Kroll-Hess integrals:
                    - Parametrization         : EXP
                    - DKH order of Hamiltonian: 2
                    - DKH order of Properties : 0
                         - multipole moment operators
                         - electric potential operators
                         - contact operators
                  Atomic mean-field integrals
                  Two-Electron Repulsion integrals
 
                   Integrals are discarded if absolute value <: 0.10E-13
                   Integral cutoff threshold is set to       <: 0.10E-15
 
            Nuclear Potential Energy              4.05846736 au
 
 
      Basis set specifications :
      Symmetry species         a  
      Basis functions           50
 
 
  Input file to MOLDEN was generated!
 
 ###############################################################################
 ###############################################################################
 ###                                                                         ###
 ###                                                                         ###
 ###    There were warnings during the execution                             ###
 ###    Please, check the output with care!                                  ###
 ###                                                                         ###
 ###                                                                         ###
 ###############################################################################
 ###############################################################################
--- Stop Module: seward at Mon Nov 18 18:29:24 2024 /rc=_RC_ALL_IS_WELL_ ---
*** files: H10_2.52.GssOrb H10_2.52.guessorb.h5 H10_2.52.guessorb.molden xmldump
    saved to directory /home/grierjones/DDCASPT2/hydrogen_comps/H10_chain/H10_2.52

*** symbolic link created: INPORB -> H10_2.52.GssOrb
--- Start Module: scf at Mon Nov 18 18:29:24 2024 ---
 
()()()()()()()()()()()()()()()()()()()()()()()()()()()()()()()()()()()()()()()()()()()()()()()()()()

                                                &SCF

                                   only a single process is used
                       available to each process: 2.0 GB of memory, 1 thread?
()()()()()()()()()()()()()()()()()()()()()()()()()()()()()()()()()()()()()()()()()()()()()()()()()()
 
++    Input section:
      --------------
 
      Header of the integral files:
      
       Integrals generated by seward 4.2.0  , Mon Nov 18 18:29:23 2024
 
 
      Cartesian coordinates in Angstrom:
      -----------------------------------------------------
      No.  Label        X            Y            Z        
      -----------------------------------------------------
       1   H1         0.00000000   0.00000000   0.00000000
       2   H2         0.00000000   0.00000000   2.51515200
       3   H3         0.00000000   0.00000000   5.03030300
       4   H4         0.00000000   0.00000000   7.54545500
       5   H5         0.00000000   0.00000000  10.06060600
       6   H6         0.00000000   0.00000000  12.57575800
       7   H7         0.00000000   0.00000000  15.09090900
       8   H8         0.00000000   0.00000000  17.60606100
       9   H9         0.00000000   0.00000000  20.12121200
      10   H10        0.00000000   0.00000000  22.63636400
      -----------------------------------------------------
      Nuclear repulsion energy =    4.05846736
--
 
++    Orbital specifications:
      -----------------------
 
      Symmetry species               1
                                     a
      Frozen orbitals                0
      Occupied orbitals              5
      Secondary orbitals            45
      Deleted orbitals               0
      Total number of orbitals      50
      Number of basis functions     50
--
 
      Molecular charge                           0.000
 
++    Optimization specifications:
      ----------------------------
 
      SCF Algorithm: Conventional
      Minimized density differences are used
      Number of density matrices in core                5
      Maximum number of NDDO SCF iterations           400
      Maximum number of HF SCF iterations             400
      Threshold for SCF energy change            0.10E-08
      Threshold for density matrix               0.10E-03
      Threshold for Fock matrix                  0.15E-03
      Threshold for linear dependence            0.10E-08
      Threshold at which DIIS is turned on       0.15E+00
      Threshold at which QNR/C2DIIS is turned on 0.75E-01
      Threshold for Norm(delta) (QNR/C2DIIS)     0.20E-04
      DIIS extrapolation of the SCF procedure
      All orbitals punched on: SCFORB
--
 
      Input vectors read from INPORB
      Orbital file label: *Guess orbitals
 
 
++ Convergence information
                                   SCF        iterations: Energy and convergence statistics
 
Iter     Tot. SCF        One-elec.       Two-elec.     Energy      Max Dij or  Max Fij      DNorm      TNorm      AccCon     Time
         Energy          Energy          Energy        Change      Delta Norm                                                in Sec.
   1    -4.029555019   -13.279110029     5.191087646   0.00E+00    0.39E+00*   0.13E+00*    0.49E+01   0.92E+01   None         0.
   2    -4.315709375   -13.233851551     4.859674813  -0.29E+00*   0.15E+00*   0.24E-01*    0.15E+01   0.89E+01   EDIIS        0.
   3    -4.330881380   -13.159318079     4.769969335  -0.15E-01*   0.95E-01*   0.92E-02*    0.36E+00   0.88E+01   EDIIS        0.
   4    -4.334505283   -13.161725012     4.768752366  -0.36E-02*   0.55E-01*   0.73E-02*    0.17E+00   0.88E+01   c2DIIS       0.
   5    -4.336259704   -13.148671934     4.753944867  -0.18E-02*   0.27E-01*   0.37E-02*    0.58E-01   0.88E+01   QNRc2DIIS    0.
   6    -4.336673250   -13.154902066     4.759761453  -0.41E-03*   0.32E-01*   0.23E-02*    0.27E-01   0.88E+01   QNRc2DIIS    0.
   7    -4.336921103   -13.152670484     4.757282018  -0.25E-03*   0.63E-02*   0.53E-03*    0.98E-02   0.88E+01   QNRc2DIIS    0.
   8    -4.336929818   -13.150432792     4.755035610  -0.87E-05*   0.14E-02*   0.23E-03*    0.39E-02   0.88E+01   QNRc2DIIS    0.
   9    -4.336931078   -13.150800916     4.755402474  -0.13E-05*   0.20E-03*   0.19E-04     0.10E-02   0.88E+01   QNRc2DIIS    0.
  10    -4.336931096   -13.150799890     4.755401430  -0.18E-07*   0.73E-04*   0.53E-05     0.40E-03   0.88E+01   QNRc2DIIS    0.
  11    -4.336931098   -13.150800305     4.755401843  -0.18E-08*   0.19E-04    0.15E-05     0.56E-04   0.88E+01   QNRc2DIIS    0.
  12    -4.336931098   -13.150801711     4.755403250  -0.12E-09    0.52E-06    0.82E-07     0.17E-04   0.88E+01   QNRc2DIIS    0.
 
       Convergence after 12 Macro Iterations
--
 
 *****************************************************************************************************************************
 *                                                                                                                           *
 *                                             SCF/KS-DFT Program, Final results                                             *
 *                                                                                                                           *
 *                                                                                                                           *
 *                                                                                                                           *
 *                                                       Final Results                                                       *
 *                                                                                                                           *
 *****************************************************************************************************************************
 
::    Total SCF energy                                 -4.3369310980
      One-electron energy                             -13.1508017114
      Two-electron energy                               4.7554032501
      Nuclear repulsion energy                          4.0584673633
      Kinetic energy (interpolated)                     3.2886558500
      Virial theorem                                    1.3187549247
      Total spin, S(S+1)                                0.0000000000
      Total spin, S                                     0.0000000000
      Max non-diagonal density matrix element           0.0000004935
      Max non-diagonal Fock matrix element              0.0000000083
 
 
      All orbitals with orbital energies smaller than  E(LUMO)+0.5 are printed
 
++    Molecular orbitals:
      -------------------
 
      Title: SCF orbitals

      Molecular orbitals for symmetry species 1: a  
 
          Orbital            1         2         3         4         5         6         7         8         9        10    
          Energy           -0.3937   -0.3834   -0.3674   -0.3473   -0.3282   -0.1545   -0.1280   -0.0985   -0.0718   -0.0535
          Occ. No.          2.0000    2.0000    2.0000    2.0000    2.0000    0.0000    0.0000    0.0000    0.0000    0.0000
 
        1 H1     1s         0.1242   -0.2425    0.3328   -0.3579    0.2568   -0.2930    0.4391   -0.4462    0.3532   -0.1943
        2 H1     2s         0.0223   -0.0447    0.0640   -0.0728    0.0550   -0.0904    0.1426   -0.1515    0.1230   -0.0682
        3 H1     2px       -0.0000    0.0000   -0.0000    0.0000   -0.0000   -0.0000   -0.0000    0.0000   -0.0000   -0.0000
        4 H1     2py       -0.0000    0.0000    0.0000   -0.0000    0.0000    0.0000    0.0000   -0.0000    0.0000   -0.0000
        5 H1     2pz        0.0047   -0.0085    0.0103   -0.0094    0.0057    0.0019   -0.0061    0.0107   -0.0124    0.0086
        6 H2     1s         0.1701   -0.3070    0.3699   -0.3317    0.1959    0.1453   -0.3381    0.4877   -0.4897    0.3081
        7 H2     2s         0.0256   -0.0548    0.0813   -0.0895    0.0621    0.0391   -0.1094    0.1713   -0.1758    0.1100
        8 H2     2px       -0.0000    0.0000   -0.0000    0.0000    0.0000   -0.0000    0.0000    0.0000   -0.0000    0.0000
        9 H2     2py        0.0000   -0.0000   -0.0000   -0.0000   -0.0000    0.0000   -0.0000   -0.0000    0.0000   -0.0000
       10 H2     2pz       -0.0005    0.0027   -0.0068    0.0107   -0.0094    0.0128   -0.0155    0.0090    0.0003   -0.0040
       11 H3     1s         0.2808   -0.3363    0.0981    0.2574   -0.3567    0.3983   -0.2842   -0.1657    0.5116   -0.4381
       12 H3     2s         0.0511   -0.0589    0.0073    0.0716   -0.0930    0.1265   -0.0907   -0.0625    0.1821   -0.1537
       13 H3     2px        0.0000   -0.0000    0.0000    0.0000    0.0000    0.0000    0.0000    0.0000    0.0000    0.0000
       14 H3     2py        0.0000   -0.0000    0.0000   -0.0000    0.0000    0.0000   -0.0000    0.0000   -0.0000   -0.0000
       15 H3     2pz        0.0054   -0.0037   -0.0041    0.0103   -0.0085   -0.0093    0.0161   -0.0120   -0.0014    0.0083
       16 H4     1s         0.3090   -0.2982   -0.0263    0.3367   -0.3153   -0.3058    0.4367   -0.1182   -0.4077    0.5019
       17 H4     2s         0.0505   -0.0616    0.0073    0.0755   -0.0891   -0.0923    0.1495   -0.0459   -0.1435    0.1772
       18 H4     2px        0.0000   -0.0000    0.0000   -0.0000   -0.0000    0.0000    0.0000   -0.0000   -0.0000   -0.0000
       19 H4     2py       -0.0000    0.0000    0.0000    0.0000    0.0000   -0.0000    0.0000    0.0000   -0.0000   -0.0000
       20 H4     2pz       -0.0029    0.0069   -0.0057   -0.0045    0.0112   -0.0151    0.0048    0.0130   -0.0123    0.0009
       21 H5     1s         0.3536   -0.0472   -0.3534    0.0686    0.3731   -0.4008   -0.1410    0.4740    0.1129   -0.5481
       22 H5     2s         0.0612    0.0013   -0.0767    0.0039    0.1010   -0.1248   -0.0538    0.1656    0.0421   -0.1928
       23 H5     2px       -0.0000   -0.0000   -0.0000   -0.0000   -0.0000    0.0000    0.0000    0.0000    0.0000    0.0000
       24 H5     2py       -0.0000    0.0000    0.0000    0.0000    0.0000    0.0000   -0.0000    0.0000    0.0000    0.0000
       25 H5     2pz        0.0049    0.0039   -0.0072   -0.0050    0.0109    0.0139   -0.0104   -0.0103    0.0117    0.0053
       26 H6     1s         0.3536    0.0472   -0.3534   -0.0686    0.3731    0.4008   -0.1410   -0.4740    0.1129    0.5481
       27 H6     2s         0.0612   -0.0013   -0.0767   -0.0039    0.1010    0.1248   -0.0538   -0.1656    0.0421    0.1928
       28 H6     2px       -0.0000    0.0000   -0.0000   -0.0000   -0.0000    0.0000   -0.0000    0.0000   -0.0000   -0.0000
       29 H6     2py       -0.0000   -0.0000   -0.0000   -0.0000    0.0000   -0.0000    0.0000   -0.0000   -0.0000    0.0000
       30 H6     2pz       -0.0049    0.0039    0.0072   -0.0050   -0.0109    0.0139    0.0104   -0.0103   -0.0117    0.0053
       31 H7     1s         0.3090    0.2982   -0.0263   -0.3367   -0.3153    0.3058    0.4367    0.1182   -0.4077   -0.5019
       32 H7     2s         0.0505    0.0616    0.0073   -0.0755   -0.0891    0.0923    0.1495    0.0459   -0.1435   -0.1772
       33 H7     2px        0.0000   -0.0000   -0.0000    0.0000    0.0000    0.0000    0.0000   -0.0000   -0.0000   -0.0000
       34 H7     2py       -0.0000   -0.0000    0.0000   -0.0000   -0.0000    0.0000    0.0000    0.0000   -0.0000   -0.0000
       35 H7     2pz        0.0029    0.0069    0.0057   -0.0045   -0.0112   -0.0151   -0.0048    0.0130    0.0123    0.0009
       36 H8     1s         0.2808    0.3363    0.0981   -0.2574   -0.3567   -0.3983   -0.2842    0.1657    0.5116    0.4381
       37 H8     2s         0.0511    0.0589    0.0073   -0.0716   -0.0930   -0.1265   -0.0907    0.0625    0.1821    0.1537
       38 H8     2px        0.0000    0.0000   -0.0000   -0.0000    0.0000    0.0000    0.0000   -0.0000   -0.0000   -0.0000
       39 H8     2py        0.0000   -0.0000   -0.0000    0.0000   -0.0000   -0.0000    0.0000   -0.0000   -0.0000   -0.0000
       40 H8     2pz       -0.0054   -0.0037    0.0041    0.0103    0.0085   -0.0093   -0.0161   -0.0120    0.0014    0.0083
       41 H9     1s         0.1701    0.3070    0.3699    0.3317    0.1959   -0.1453   -0.3381   -0.4877   -0.4897   -0.3081
       42 H9     2s         0.0256    0.0548    0.0813    0.0895    0.0621   -0.0391   -0.1094   -0.1713   -0.1758   -0.1100
       43 H9     2px        0.0000    0.0000    0.0000    0.0000   -0.0000   -0.0000    0.0000   -0.0000   -0.0000   -0.0000
       44 H9     2py       -0.0000   -0.0000   -0.0000    0.0000    0.0000   -0.0000   -0.0000    0.0000   -0.0000    0.0000
       45 H9     2pz        0.0005    0.0027    0.0068    0.0107    0.0094    0.0128    0.0155    0.0090   -0.0003   -0.0040
       46 H10    1s         0.1242    0.2425    0.3328    0.3579    0.2568    0.2930    0.4391    0.4462    0.3532    0.1943
       47 H10    2s         0.0223    0.0447    0.0640    0.0728    0.0550    0.0904    0.1426    0.1515    0.1230    0.0682
       48 H10    2px        0.0000    0.0000    0.0000   -0.0000    0.0000   -0.0000    0.0000    0.0000   -0.0000    0.0000
       49 H10    2py       -0.0000   -0.0000    0.0000   -0.0000    0.0000   -0.0000   -0.0000   -0.0000   -0.0000   -0.0000
       50 H10    2pz       -0.0047   -0.0085   -0.0103   -0.0094   -0.0057    0.0019    0.0061    0.0107    0.0124    0.0086
 
          Orbital           11        12    
          Energy            0.3198    0.3293
          Occ. No.          0.0000    0.0000
 
        1 H1     1s        -0.0906    0.1469
        2 H1     2s         0.1757   -0.3170
        3 H1     2px        0.0000    0.0000
        4 H1     2py        0.0000   -0.0000
        5 H1     2pz       -0.0091    0.0144
        6 H2     1s        -0.1478    0.2097
        7 H2     2s         0.1751   -0.2656
        8 H2     2px       -0.0000    0.0000
        9 H2     2py       -0.0000   -0.0000
       10 H2     2pz        0.0019   -0.0039
       11 H3     1s        -0.1655    0.1796
       12 H3     2s         0.2227   -0.2620
       13 H3     2px       -0.0000    0.0000
       14 H3     2py       -0.0000   -0.0000
       15 H3     2pz       -0.0035    0.0012
       16 H4     1s        -0.1901    0.1246
       17 H4     2s         0.2483   -0.1783
       18 H4     2px       -0.0000   -0.0000
       19 H4     2py       -0.0000    0.0000
       20 H4     2pz        0.0024   -0.0036
       21 H5     1s        -0.1990    0.0486
       22 H5     2s         0.2632   -0.0673
       23 H5     2px       -0.0000   -0.0000
       24 H5     2py        0.0000    0.0000
       25 H5     2pz       -0.0032   -0.0020
       26 H6     1s        -0.1990   -0.0486
       27 H6     2s         0.2632    0.0673
       28 H6     2px        0.0000   -0.0000
       29 H6     2py       -0.0000   -0.0000
       30 H6     2pz        0.0032   -0.0020
       31 H7     1s        -0.1901   -0.1246
       32 H7     2s         0.2483    0.1783
       33 H7     2px       -0.0000   -0.0000
       34 H7     2py        0.0000   -0.0000
       35 H7     2pz       -0.0024   -0.0036
       36 H8     1s        -0.1655   -0.1796
       37 H8     2s         0.2227    0.2620
       38 H8     2px        0.0000   -0.0000
       39 H8     2py        0.0000   -0.0000
       40 H8     2pz        0.0035    0.0012
       41 H9     1s        -0.1478   -0.2097
       42 H9     2s         0.1751    0.2656
       43 H9     2px        0.0000   -0.0000
       44 H9     2py       -0.0000   -0.0000
       45 H9     2pz       -0.0019   -0.0039
       46 H10    1s        -0.0906   -0.1469
       47 H10    2s         0.1757    0.3170
       48 H10    2px       -0.0000    0.0000
       49 H10    2py       -0.0000    0.0000
       50 H10    2pz        0.0091    0.0144
--
 
 
++    Molecular charges:
      ------------------
 
      Mulliken charges per centre and basis function type
      ---------------------------------------------------
 
                H1      H2      H3      H4      H5      H6      H7      H8      H9      H10   
      1s       0.8796  0.9333  0.9084  0.9158  0.9119  0.9119  0.9158  0.9084  0.9333  0.8796
      2s       0.0833  0.0922  0.0826  0.0849  0.0842  0.0842  0.0849  0.0826  0.0922  0.0833
      2px      0.0000  0.0000  0.0000  0.0000  0.0000  0.0000  0.0000  0.0000  0.0000  0.0000
      2pz      0.0043  0.0050  0.0049  0.0048  0.0049  0.0049  0.0048  0.0049  0.0050  0.0043
      2py      0.0000  0.0000  0.0000  0.0000  0.0000  0.0000  0.0000  0.0000  0.0000  0.0000
      Total    0.9672  1.0304  0.9959  1.0055  1.0009  1.0009  1.0055  0.9959  1.0304  0.9672
 
      N-E      0.0328 -0.0304  0.0041 -0.0055 -0.0009 -0.0009 -0.0055  0.0041 -0.0304  0.0328
 
      Total electronic charge=   10.000000
 
      Total            charge=   -0.000000
--
 
 
  Input file to MOLDEN was generated!
 
 
++    Static properties:
      ------------------
 
 
      LoProp Charges per center
 

                   H1       H2       H3       H4       H5       H6       H7       H8       H9       H10   
      Nuclear      1.0000   1.0000   1.0000   1.0000   1.0000   1.0000   1.0000   1.0000   1.0000   1.0000
      Electronic  -0.9795  -1.0171  -0.9972  -1.0053  -1.0010  -1.0010  -1.0053  -0.9972  -1.0171  -0.9795
 
      Total        0.0205  -0.0171   0.0028  -0.0053  -0.0010  -0.0010  -0.0053   0.0028  -0.0171   0.0205
--
 
 
++    Natural Bond Order analysis
      ---------------------------
      Based on LoProp computed density
      -------------------------------------------------------------------------------------
      Atom A       Atom B       Bond Order
      -------------------------------------------------------------------------------------
      NBO located      0.968 non-bonded electrons on atom H1        
      NBO located      1.004 non-bonded electrons on atom H3        
      NBO located      1.013 non-bonded electrons on atom H4        
      NBO located      1.008 non-bonded electrons on atom H5        
      NBO located      1.008 non-bonded electrons on atom H6        
      NBO located      1.013 non-bonded electrons on atom H7        
      NBO located      1.004 non-bonded electrons on atom H8        
      NBO located      0.968 non-bonded electrons on atom H10       
      The remaining    2.016 electrons are to be considered as diffuse
--
 
 
++    Molecular properties:
      ---------------------
 
      Charge (e):
                      =   -0.0000
      Dipole Moment (Debye):
      Origin of the operator (Ang)=    0.0000    0.0000    0.0000
                   X=  6.1887E-14               Y= -2.3185E-14               Z= -1.0114E-12           Total=  1.0135E-12
      Quadrupole Moment (Debye*Ang):
      Origin of the operator (Ang)=    0.0000    0.0000   11.3182
                  XX= -2.3656E+01              XY=  1.0493E-28              XZ= -7.5293E-13              YY= -2.3656E+01
                  YZ=  2.3263E-13              ZZ=  3.1610E+00
      In traceless form (Debye*Ang)
                  XX= -1.3408E+01              XY=  1.5739E-28              XZ= -1.1294E-12              YY= -1.3408E+01
                  YZ=  3.4894E-13              ZZ=  2.6817E+01
--
 
 
  Input file to MOLDEN was generated!
 
 ###############################################################################
 ###############################################################################
 ###                                                                         ###
 ###                                                                         ###
 ###    RunFile label nBas                                                   ###
 ###    was used       78 times                                              ###
 ###                                                                         ###
 ###                                                                         ###
 ###############################################################################
 ###############################################################################
--- Stop Module: scf at Mon Nov 18 18:29:24 2024 /rc=_RC_ALL_IS_WELL_ ---
*** files: H10_2.52.LprOrb H10_2.52.LoProp.molden H10_2.52.scf.molden H10_2.52.ScfOrb H10_2.52.scf.h5 xmldump
    saved to directory /home/grierjones/DDCASPT2/hydrogen_comps/H10_chain/H10_2.52

>>> COPY /tmp/H10_2.52/H10_2.52.scf.h5 /home/grierjones/DDCASPT2/hydrogen_comps/H10_chain/H10_2.52/

*** symbolic link created: INPORB -> H10_2.52.ScfOrb
--- Start Module: rasscf at Mon Nov 18 18:29:24 2024 ---
 
()()()()()()()()()()()()()()()()()()()()()()()()()()()()()()()()()()()()()()()()()()()()()()()()()()

                                              &RASSCF

                                   only a single process is used
                       available to each process: 2.0 GB of memory, 1 thread?
()()()()()()()()()()()()()()()()()()()()()()()()()()()()()()()()()()()()()()()()()()()()()()()()()()
 
 
 *************** WARNING ****************
 ###############################################################################
 ###############################################################################
 ###                                                                         ###
 ###                                                                         ###
 ###    Too many macro-iterations.                                           ###
 ###                                                                         ###
 ###                                                                         ###
 ###############################################################################
 ###############################################################################
 Too many macro-iterations requested.
 Reset to maximum, new MAXIT=     200
 ****************************************
 
 *************** WARNING ****************
 ###############################################################################
 ###############################################################################
 ###                                                                         ###
 ###                                                                         ###
 ###    Too many SX-iterations.                                              ###
 ###                                                                         ###
 ###                                                                         ###
 ###############################################################################
 ###############################################################################
 Too many SX-iterations requested.
 Reset to maximum, new ITMAX=     100
 ****************************************
 
      Header of the ONEINT file:
      --------------------------
      
      Integrals generated by seward 4.2.0  , Mon Nov 18 18:29:23 2024
 
 
      OrdInt status: non-squared
 
 
      Cartesian coordinates in Angstrom:
      -----------------------------------------------------
      No.  Label        X            Y            Z        
      -----------------------------------------------------
       1   H1         0.00000000   0.00000000   0.00000000
       2   H2         0.00000000   0.00000000   2.51515200
       3   H3         0.00000000   0.00000000   5.03030300
       4   H4         0.00000000   0.00000000   7.54545500
       5   H5         0.00000000   0.00000000  10.06060600
       6   H6         0.00000000   0.00000000  12.57575800
       7   H7         0.00000000   0.00000000  15.09090900
       8   H8         0.00000000   0.00000000  17.60606100
       9   H9         0.00000000   0.00000000  20.12121200
      10   H10        0.00000000   0.00000000  22.63636400
      -----------------------------------------------------
      Nuclear repulsion energy =    4.05846736
 
++    Wave function specifications:
      -----------------------------
 
      Number of closed shell electrons           0
      Number of electrons in active shells      10
      Max number of holes in RAS1 space          0
      Max nr of electrons in RAS3 space          0
      Number of inactive orbitals                0
      Number of active orbitals                 10
      Number of secondary orbitals              40
      Spin quantum number                      0.0
      State symmetry                             1
--
 
++    Orbital specifications:
      -----------------------
 
      Symmetry species                           1
                                                 a
      Frozen orbitals                            0
      Inactive orbitals                          0
      Active orbitals                           10
      RAS1 orbitals                              0
      RAS2 orbitals                             10
      RAS3 orbitals                              0
      Secondary orbitals                        40
      Deleted orbitals                           0
      Number of basis functions                 50
--
 
++    CI expansion specifications:
      ----------------------------
 
      Number of CSFs                         19404
      Number of determinants                 31878
      Number of root(s) required                 1
      Root chosen for geometry opt.              1
      CI root used                               1
         
      highest root included in the CI            1
      max. size of the explicit Hamiltonian    200
--
 
++    Optimization specifications:
      ----------------------------
 
      RASSCF algorithm: Conventional
      Maximum number of macro iterations       200
      Maximum number of SX iterations          100
      Threshold for RASSCF energy            0.100E-07
      Threshold for max MO rotation          0.100E+00
      Threshold for max BLB element          0.100E-03
      Level shift parameter                  0.500E+00
      Make Quasi-Newton update
--
 
      The MO-coefficients are taken from the file:
      /home/grierjones/DDCASPT2/hydrogen_comps/H10_chain/H10_2.49/H10_2.49.RasOrb                                                     
      Title: RASSCF average (pseudo-natural) orbitals                                      
 
      Total molecular charge    0.00
 
      ************************************************************************************************************************
      *                                                                                                                      *
      *                                            Wave function control section                                             *
      *                                                                                                                      *
      ************************************************************************************************************************
 
 
                                         RASSCF iterations: Energy and convergence statistics
                                         ----------------------------------------------------
 
      Iter CI   SX   CI       RASSCF       Energy    max ROT     max BLB   max BLB  Level Ln srch  Step   QN   Walltime
          iter iter root      energy       change     param      element    value   shift minimum  type update hh:mm:ss
 Nr of preliminary CI iterations:   9
        1   1    4    1    -5.00298649    0.00E+00   0.19E-02    9  16 1 -0.12E-02*  0.01   0.00    SX    NO    0:00:00
        2   1    4    1    -5.00299185   -0.54E-05* -0.39E-03    1  11 1  0.28E-03*  0.01   0.00    SX    NO    0:00:00
        3   2    3    1    -5.00300497   -0.13E-04*  0.65E-04    1  11 1 -0.47E-04   0.01   0.00    SX    NO    0:00:00
        No convergence in the CI section: MAXJT will be increased to 
                    60
        4  48    4    1    -5.00322830   -0.22E-03* -0.10E-02    9  16 1  0.64E-03*  0.01   0.00    SX    NO    0:00:01
        5   1    4    1    -5.00323075   -0.24E-05*  0.20E-03    5  15 1  0.17E-03*  0.01   0.80    QN   YES    0:00:00
        No convergence in the CI section: MAXJT will be increased to 
                    84
        6  72    4    1    -5.00323342   -0.27E-05* -0.12E-03    9  16 1  0.22E-03*  0.01   0.97    QN   YES    0:00:02
        7  16    4    1    -5.00323377   -0.35E-06*  0.36E-03    9  16 1  0.17E-03*  0.01   1.20    QN   YES    0:00:00
        8  66    3    1    -5.00323418   -0.42E-06*  0.45E-04    9  16 1 -0.24E-04   0.01   0.95    QN   YES    0:00:02
        9   2    3    1    -5.00323419   -0.38E-08  -0.12E-04    9  16 1  0.89E-05   0.01   0.77    QN   YES    0:00:00
      Convergence after  9 iterations
 
  Dmat in MO in SXCTL bf call to SXHAM                                                                                    
  mat. size =    10x   10
 
        1.3690102795429993
       -0.0000000394048751      1.3391804257317546
        0.0000447941400434      0.0000000502570663      1.2896352367872934
       -0.0000000625996613     -0.0000708301537426      0.0000000648867051      1.2225795148229266
        0.0000267908226484     -0.0000000617874397      0.0000493808951928     -0.0000000968710851      1.1450554379691604
        0.0000170664416935     -0.0000000004912187      0.0001050321426417      0.0000000231822620      0.0000377126790295
        0.6580238849259905
       -0.0000000563030212     -0.0000287216230831      0.0000000000227311      0.0001558230692161      0.0000000872391090
        0.0000000493668084      0.7103683125864380
       -0.0000356551295529     -0.0000000227381236      0.0000062503490357      0.0000000001156622     -0.0001476955047255
        0.0001291681066664      0.0000000639459978      0.7802012695170815
        0.0000001150688121     -0.0000371719225886     -0.0000000897742030     -0.0000645729595754      0.0000000000192844
       -0.0000000614885438     -0.0001279195962545     -0.0000000943222841      0.8595644879245570
        0.0000000004198260      0.0000404258184454     -0.0000000558894514     -0.0000324927730842      0.0000001110844089
        0.0000000363856584      0.0000353820781905      0.0000000585465495      0.0000094827540655      0.6263811501918389
       10   1    3    1    -5.00323419   -0.52E-09  -0.12E-04    5  17 1 -0.58E-06   0.01   0.77    QN   YES    0:00:00
 
      ************************************************************************************************************************
                                                      Wave function printout:
                       occupation of active orbitals, and spin coupling of open shells (u,d: Spin up or down)
      ************************************************************************************************************************
 
      Note: transformation to natural orbitals
      has been made, which may change the order of the CSFs.
 
      printout of CI-coefficients larger than  0.05 for root  1
      energy=      -5.003234
      conf/sym  1111111111     Coeff  Weight
             1  2222200000   0.28416 0.08075
            36  2222000020  -0.14534 0.02112
            50  222ud00ud0  -0.15639 0.02446
            62  22u2d00200  -0.05024 0.00252
            64  22u2d0u0d0  -0.12484 0.01559
            76  2u22d0ud00   0.05446 0.00297
            78  2u22du00d0  -0.10942 0.01197
            84  2u22d00u0d  -0.05119 0.00262
            90  u222du0d00   0.06263 0.00392
           100  u222d000ud   0.12902 0.01665
           107  2220200200  -0.09754 0.00951
           109  222020u0d0  -0.05008 0.00251
           121  22ud20ud00  -0.11917 0.01420
           123  22ud2u00d0   0.05434 0.00295
           135  2u2d2u0d00  -0.11559 0.01336
           145  2u2d2000ud  -0.06280 0.00394
           153  u22d2u00d0   0.05210 0.00271
           159  u22d200u0d   0.09652 0.00932
           164  2202202000  -0.08314 0.00691
           178  2ud22ud000  -0.10090 0.01018
           203  u2d220u00d   0.09298 0.00864
           207  2022220000  -0.07037 0.00495
           232  ud222u000d   0.09491 0.00901
           251  0222200002  -0.07356 0.00541
           291  u222u000dd  -0.05402 0.00292
          1971  2220000220   0.08730 0.00762
          2020  22ud00ud20   0.08987 0.00808
          2069  2u2d0u0d20   0.08217 0.00675
          2141  u22d000u2d   0.07294 0.00532
          2168  2202002020   0.06278 0.00394
          2217  2ud20ud020   0.07063 0.00499
          2290  u2d200u02d   0.06167 0.00380
          2316  2022020020   0.05154 0.00266
          2389  ud220u002d   0.06050 0.00366
          2451  0222000022   0.05389 0.00290
          2465  22u0d0u2d0   0.07515 0.00565
          2514  2u20du02d0   0.06012 0.00361
          2585  u220d002ud   0.06345 0.00403
          2612  220ud02ud0   0.06484 0.00420
          2661  2udududud0   0.08068 0.00651
          2738  u2dud0uudd   0.06025 0.00363
          2760  202ud20ud0   0.05337 0.00285
          2837  ud2udu0udd   0.05298 0.00281
          2900  022ud00ud2   0.05381 0.00290
          2913  2uudduudd0   0.07450 0.00555
          2984  u2udd0udud   0.06113 0.00374
          3033  uu2ddu0dud   0.07556 0.00571
          3132  u202d020ud   0.05929 0.00352
          3236  udu2duu0dd   0.05190 0.00269
          3331  uud2dud0ud   0.05323 0.00283
          3457  2200202200   0.05185 0.00269
          3506  2ud02ud200   0.05423 0.00294
          3754  2u0d2u2d00   0.06210 0.00386
          3927  udud2uud0d   0.05326 0.00284
          4025  uudd2udu0d   0.05355 0.00287
         12211  2200002220  -0.05545 0.00307
         12260  2ud00ud220  -0.05822 0.00339
         12331  u2d000u22d   0.05382 0.00290
         12508  2u0d0u2d20  -0.05377 0.00289
         13917  uu0ddu2dud   0.05298 0.00281
         19404  0000022222  -0.05281 0.00279
 
      Natural orbitals and occupation numbers for root  1
      sym 1:   1.369010   1.339180   1.289635   1.222580   1.145055   0.658024   0.710368   0.780201   0.859565   0.626381

 
      ************************************************************************************************************************
      *                                                                                                                      *
      *                                                    Final results                                                     *
      *                                                                                                                      *
      ************************************************************************************************************************
 
 
++    Wave function specifications:
      -----------------------------
 
      Number of closed shell electrons           0
      Number of electrons in active shells      10
      Max number of holes in RAS1 space          0
      Max nr of electrons in RAS3 space          0
      Number of inactive orbitals                0
      Number of active orbitals                 10
      Number of secondary orbitals              40
      Spin quantum number                      0.0
      State symmetry                             1
--
 
++    Orbital specifications:
      -----------------------
 
      Symmetry species                           1
                                                 a
      Frozen orbitals                            0
      Inactive orbitals                          0
      Active orbitals                           10
      RAS1 orbitals                              0
      RAS2 orbitals                             10
      RAS3 orbitals                              0
      Secondary orbitals                        40
      Deleted orbitals                           0
      Number of basis functions                 50
--
 
++    CI expansion specifications:
      ----------------------------
 
      Number of CSFs                         19404
      Number of determinants                 31878
      Number of root(s) required                 1
      CI root used                               1
      highest root included in the CI            1
      Root passed to geometry opt.               1
--
 
++    Final optimization conditions:
      ------------------------------
 
      Average CI energy                              -5.00323419
      RASSCF energy for state  1                     -5.00323419
      Super-CI energy                                -0.00000000
      RASSCF energy change                            0.00000000
      Max change in MO coefficients               0.706E-05
      Max non-diagonal density matrix element    -0.121E-04
      Maximum BLB matrix element                 -0.579E-06
      (orbital pair   5,  17 in symmetry   1)
      Norm of electronic gradient            0.148E-05
--
 
 
      Final state energy(ies):
      ------------------------
 
::    RASSCF root number  1 Total energy:     -5.00323419
 
++    Molecular orbitals:
      -------------------
 
      Pseudonatural active orbitals and approximate occupation numbers
 
 
 
 
      Molecular orbitals for symmetry species 1: a  
 
 
      Orbital                1         2         3         4         5         6         7         8         9        10
      Energy            0.0000    0.0000    0.0000    0.0000    0.0000    0.0000    0.0000    0.0000    0.0000    0.0000
      Occ. No.          1.3690    1.3392    1.2896    1.2226    1.1451    0.6580    0.7104    0.7802    0.8596    0.6264
 
    1 H1     1s         0.1513    0.2788    0.3584   -0.3643    0.2671    0.3432   -0.4258   -0.4147   -0.2903    0.1910
    2 H1     2s         0.0111    0.0209    0.0277   -0.0293    0.0225    0.0438   -0.0509   -0.0459   -0.0298    0.0255
    3 H1     2px       -0.0000   -0.0000   -0.0000    0.0000   -0.0000   -0.0000    0.0000    0.0000   -0.0000   -0.0000
    4 H1     2py        0.0000   -0.0000    0.0000   -0.0000   -0.0000   -0.0000    0.0000   -0.0000    0.0000   -0.0000
    5 H1     2pz        0.0009    0.0014    0.0015   -0.0011    0.0005    0.0021   -0.0019   -0.0013   -0.0006    0.0014
    6 H2     1s         0.2100    0.3533    0.3862   -0.3042    0.1515   -0.4651    0.4641    0.3196    0.1290   -0.2920
    7 H2     2s         0.0131    0.0259    0.0357   -0.0368    0.0249   -0.0750    0.0649    0.0340    0.0060   -0.0507
    8 H2     2px       -0.0000   -0.0000   -0.0000   -0.0000   -0.0000    0.0000   -0.0000    0.0000    0.0000    0.0000
    9 H2     2py       -0.0000    0.0000    0.0000    0.0000    0.0000    0.0000    0.0000    0.0000    0.0000   -0.0000
   10 H2     2pz        0.0007    0.0005   -0.0007    0.0018   -0.0017    0.0004   -0.0006   -0.0001    0.0005    0.0001
   11 H3     1s         0.2939    0.3412    0.0884    0.2651   -0.3899    0.4594   -0.1380    0.2822    0.4157    0.3979
   12 H3     2s         0.0208    0.0225    0.0000    0.0317   -0.0425    0.0776   -0.0268    0.0332    0.0501    0.0681
   13 H3     2px       -0.0000   -0.0000    0.0000    0.0000    0.0000    0.0000    0.0000   -0.0000   -0.0000   -0.0000
   14 H3     2py        0.0000    0.0000    0.0000   -0.0000   -0.0000   -0.0000    0.0000   -0.0000    0.0000    0.0000
   15 H3     2pz        0.0002   -0.0006   -0.0016    0.0017   -0.0007    0.0008    0.0002    0.0003   -0.0001    0.0012
   16 H4     1s         0.3293    0.2821   -0.0925    0.3808   -0.2973   -0.3614   -0.1383   -0.4464   -0.2971   -0.4542
   17 H4     2s         0.0216    0.0235   -0.0017    0.0340   -0.0369   -0.0573   -0.0264   -0.0624   -0.0305   -0.0797
   18 H4     2px       -0.0000   -0.0000    0.0000   -0.0000   -0.0000   -0.0000   -0.0000    0.0000   -0.0000    0.0000
   19 H4     2py       -0.0000   -0.0000    0.0000    0.0000   -0.0000   -0.0000   -0.0000   -0.0000    0.0000   -0.0000
   20 H4     2pz        0.0005   -0.0008   -0.0016   -0.0000    0.0016    0.0011   -0.0004    0.0004   -0.0002    0.0006
   21 H5     1s         0.3591    0.0647   -0.3600    0.1137    0.3938    0.1029    0.4446    0.1581   -0.4105    0.4912
   22 H5     2s         0.0244    0.0005   -0.0307    0.0039    0.0448    0.0208    0.0668    0.0280   -0.0468    0.0855
   23 H5     2px        0.0000    0.0000    0.0000   -0.0000   -0.0000   -0.0000    0.0000    0.0000   -0.0000    0.0000
   24 H5     2py        0.0000    0.0000   -0.0000   -0.0000    0.0000   -0.0000   -0.0000    0.0000    0.0000   -0.0000
   25 H5     2pz       -0.0002   -0.0013   -0.0005   -0.0016    0.0013   -0.0006    0.0009   -0.0001    0.0001    0.0009
   26 H6     1s         0.3591   -0.0647   -0.3600   -0.1137    0.3938    0.1029   -0.4446    0.1581    0.4105   -0.4912
   27 H6     2s         0.0244   -0.0005   -0.0307   -0.0039    0.0448    0.0208   -0.0668    0.0280    0.0468   -0.0855
   28 H6     2px       -0.0000    0.0000   -0.0000    0.0000    0.0000    0.0000    0.0000    0.0000   -0.0000    0.0000
   29 H6     2py        0.0000    0.0000   -0.0000   -0.0000   -0.0000    0.0000    0.0000   -0.0000   -0.0000   -0.0000
   30 H6     2pz        0.0002   -0.0013    0.0005   -0.0016   -0.0013    0.0006    0.0009    0.0001    0.0001    0.0009
   31 H7     1s         0.3293   -0.2821   -0.0925   -0.3808   -0.2973   -0.3614    0.1383   -0.4464    0.2971    0.4542
   32 H7     2s         0.0216   -0.0235   -0.0017   -0.0340   -0.0369   -0.0573    0.0264   -0.0624    0.0305    0.0797
   33 H7     2px        0.0000    0.0000    0.0000   -0.0000   -0.0000   -0.0000   -0.0000    0.0000   -0.0000   -0.0000
   34 H7     2py        0.0000   -0.0000    0.0000    0.0000   -0.0000   -0.0000   -0.0000    0.0000    0.0000    0.0000
   35 H7     2pz       -0.0005   -0.0008    0.0016   -0.0000   -0.0016   -0.0011   -0.0004   -0.0004   -0.0002    0.0006
   36 H8     1s         0.2939   -0.3412    0.0884   -0.2651   -0.3899    0.4594    0.1380    0.2822   -0.4157   -0.3979
   37 H8     2s         0.0208   -0.0225    0.0000   -0.0317   -0.0425    0.0776    0.0268    0.0332   -0.0501   -0.0681
   38 H8     2px        0.0000   -0.0000   -0.0000    0.0000    0.0000   -0.0000   -0.0000    0.0000   -0.0000    0.0000
   39 H8     2py       -0.0000   -0.0000    0.0000   -0.0000   -0.0000   -0.0000   -0.0000   -0.0000    0.0000    0.0000
   40 H8     2pz       -0.0002   -0.0006    0.0016    0.0017    0.0007   -0.0008    0.0002   -0.0003   -0.0001    0.0012
   41 H9     1s         0.2100   -0.3533    0.3862    0.3042    0.1515   -0.4651   -0.4641    0.3196   -0.1290    0.2920
   42 H9     2s         0.0131   -0.0259    0.0357    0.0368    0.0249   -0.0750   -0.0649    0.0340   -0.0060    0.0507
   43 H9     2px        0.0000   -0.0000   -0.0000   -0.0000   -0.0000    0.0000   -0.0000    0.0000   -0.0000   -0.0000
   44 H9     2py        0.0000   -0.0000   -0.0000    0.0000    0.0000   -0.0000    0.0000   -0.0000    0.0000   -0.0000
   45 H9     2pz       -0.0007    0.0005    0.0007    0.0018    0.0017   -0.0004   -0.0006    0.0001    0.0005    0.0001
   46 H10    1s         0.1513   -0.2788    0.3584    0.3643    0.2671    0.3432    0.4258   -0.4147    0.2903   -0.1910
   47 H10    2s         0.0111   -0.0209    0.0277    0.0293    0.0225    0.0438    0.0509   -0.0459    0.0298   -0.0255
   48 H10    2px        0.0000   -0.0000   -0.0000   -0.0000   -0.0000    0.0000   -0.0000   -0.0000    0.0000    0.0000
   49 H10    2py        0.0000   -0.0000   -0.0000   -0.0000   -0.0000    0.0000   -0.0000    0.0000   -0.0000   -0.0000
   50 H10    2pz       -0.0009    0.0014   -0.0015   -0.0011   -0.0005   -0.0021   -0.0019    0.0013   -0.0006    0.0014
 
 
      Orbital               11        12        13        14        15        16        17        18        19        20
      Energy            0.3307    0.3399    0.3572    0.3844    0.4234    0.4745    0.5422    0.6163    0.6842    0.7449
      Occ. No.          0.0000    0.0000    0.0000    0.0000    0.0000    0.0000    0.0000    0.0000    0.0000    0.0000
 
    1 H1     1s        -0.0673    0.1023    0.0925   -0.0454   -0.0223    0.0887   -0.1392   -0.1550   -0.1238    0.1299
    2 H1     2s         0.1785   -0.3194   -0.4110    0.4621   -0.4840    0.4693   -0.4236   -0.3486   -0.2287    0.1935
    3 H1     2px        0.0000   -0.0000   -0.0000   -0.0000    0.0000   -0.0000    0.0000   -0.0000   -0.0000    0.0000
    4 H1     2py        0.0000   -0.0000   -0.0000   -0.0000   -0.0000    0.0000   -0.0000   -0.0000   -0.0000    0.0000
    5 H1     2pz       -0.0068    0.0110    0.0121   -0.0125    0.0162   -0.0274    0.0528    0.0943    0.1342   -0.3257
    6 H2     1s        -0.1208    0.1715    0.1371   -0.0610    0.0075   -0.0199    0.0976    0.1766    0.1699   -0.1325
    7 H2     2s         0.1815   -0.2738   -0.2377    0.0851    0.1470   -0.3930    0.5973    0.6602    0.4964   -0.3503
    8 H2     2px       -0.0000    0.0000    0.0000    0.0000    0.0000    0.0000   -0.0000   -0.0000   -0.0000    0.0000
    9 H2     2py        0.0000   -0.0000   -0.0000    0.0000   -0.0000    0.0000   -0.0000   -0.0000   -0.0000    0.0000
   10 H2     2pz       -0.0003   -0.0009   -0.0015   -0.0039    0.0185   -0.0366    0.0423    0.0091   -0.0691    0.3496
   11 H3     1s        -0.1360    0.1405    0.0237    0.0818   -0.0759    0.0023    0.0034   -0.1138   -0.1917    0.1339
   12 H3     2s         0.2268   -0.2658   -0.0731   -0.2294    0.4382   -0.3704   -0.0090   -0.4616   -0.5740    0.3561
   13 H3     2px        0.0000   -0.0000    0.0000    0.0000    0.0000    0.0000    0.0000   -0.0000   -0.0000    0.0000
   14 H3     2py       -0.0000    0.0000    0.0000   -0.0000   -0.0000    0.0000    0.0000   -0.0000   -0.0000    0.0000
   15 H3     2pz       -0.0009   -0.0008   -0.0018   -0.0010   -0.0025    0.0333   -0.1007   -0.1502   -0.0849   -0.2614
   16 H4     1s        -0.1523    0.1031   -0.0659    0.1182   -0.0284   -0.0006   -0.0820   -0.0330    0.1494   -0.1191
   17 H4     2s         0.2523   -0.1825    0.1565   -0.3671    0.1318    0.3800   -0.6038   -0.1329    0.4411   -0.3018
   18 H4     2px       -0.0000   -0.0000    0.0000   -0.0000   -0.0000   -0.0000   -0.0000   -0.0000   -0.0000   -0.0000
   19 H4     2py       -0.0000   -0.0000   -0.0000    0.0000   -0.0000   -0.0000    0.0000    0.0000   -0.0000    0.0000
   20 H4     2pz       -0.0002   -0.0018   -0.0007   -0.0008   -0.0139    0.0291    0.0317    0.1925    0.2441    0.1498
   21 H5     1s        -0.1606    0.0335   -0.1373    0.0516    0.0618   -0.0017    0.0485    0.1623   -0.0550    0.1056
   22 H5     2s         0.2653   -0.0674    0.3007   -0.1790   -0.3476    0.3722    0.3788    0.6286   -0.1652    0.2611
   23 H5     2px       -0.0000    0.0000    0.0000   -0.0000   -0.0000   -0.0000    0.0000   -0.0000   -0.0000    0.0000
   24 H5     2py       -0.0000    0.0000   -0.0000   -0.0000   -0.0000    0.0000   -0.0000   -0.0000   -0.0000    0.0000
   25 H5     2pz       -0.0004   -0.0021   -0.0011    0.0033   -0.0084   -0.0301    0.0777   -0.0870   -0.3409   -0.0478
   26 H6     1s        -0.1606   -0.0335   -0.1373   -0.0516    0.0618    0.0017    0.0485   -0.1623   -0.0550   -0.1056
   27 H6     2s         0.2653    0.0674    0.3007    0.1790   -0.3476   -0.3722    0.3788   -0.6286   -0.1652   -0.2611
   28 H6     2px        0.0000    0.0000    0.0000    0.0000   -0.0000   -0.0000   -0.0000   -0.0000    0.0000    0.0000
   29 H6     2py       -0.0000   -0.0000   -0.0000   -0.0000   -0.0000   -0.0000    0.0000   -0.0000    0.0000    0.0000
   30 H6     2pz        0.0004   -0.0021    0.0011    0.0033    0.0084   -0.0301   -0.0777   -0.0870    0.3409   -0.0478
   31 H7     1s        -0.1523   -0.1031   -0.0659   -0.1182   -0.0284    0.0006   -0.0820    0.0330    0.1494    0.1191
   32 H7     2s         0.2523    0.1825    0.1565    0.3671    0.1318   -0.3800   -0.6038    0.1329    0.4411    0.3018
   33 H7     2px       -0.0000   -0.0000   -0.0000    0.0000   -0.0000   -0.0000   -0.0000    0.0000    0.0000    0.0000
   34 H7     2py       -0.0000   -0.0000    0.0000   -0.0000   -0.0000    0.0000   -0.0000    0.0000   -0.0000   -0.0000
   35 H7     2pz        0.0002   -0.0018    0.0007   -0.0008    0.0139    0.0291   -0.0317    0.1925   -0.2441    0.1498
   36 H8     1s        -0.1360   -0.1405    0.0237   -0.0818   -0.0759   -0.0023    0.0034    0.1138   -0.1917   -0.1339
   37 H8     2s         0.2268    0.2658   -0.0731    0.2294    0.4382    0.3704   -0.0090    0.4616   -0.5740   -0.3561
   38 H8     2px       -0.0000   -0.0000   -0.0000   -0.0000   -0.0000   -0.0000   -0.0000    0.0000    0.0000    0.0000
   39 H8     2py        0.0000   -0.0000    0.0000   -0.0000   -0.0000    0.0000    0.0000    0.0000   -0.0000    0.0000
   40 H8     2pz        0.0009   -0.0008    0.0018   -0.0010    0.0025    0.0333    0.1007   -0.1502    0.0849   -0.2614
   41 H9     1s        -0.1208   -0.1715    0.1371    0.0610    0.0075    0.0199    0.0976   -0.1766    0.1699    0.1325
   42 H9     2s         0.1815    0.2738   -0.2377   -0.0851    0.1470    0.3930    0.5973   -0.6602    0.4964    0.3503
   43 H9     2px       -0.0000   -0.0000   -0.0000   -0.0000   -0.0000   -0.0000   -0.0000   -0.0000    0.0000    0.0000
   44 H9     2py       -0.0000   -0.0000   -0.0000    0.0000    0.0000    0.0000    0.0000   -0.0000   -0.0000    0.0000
   45 H9     2pz        0.0003   -0.0009    0.0015   -0.0039   -0.0185   -0.0366   -0.0423    0.0091    0.0691    0.3496
   46 H10    1s        -0.0673   -0.1023    0.0925    0.0454   -0.0223   -0.0887   -0.1392    0.1550   -0.1238   -0.1299
   47 H10    2s         0.1785    0.3194   -0.4110   -0.4621   -0.4840   -0.4693   -0.4236    0.3486   -0.2287   -0.1935
   48 H10    2px       -0.0000    0.0000   -0.0000   -0.0000   -0.0000    0.0000   -0.0000    0.0000    0.0000   -0.0000
   49 H10    2py       -0.0000    0.0000   -0.0000   -0.0000   -0.0000   -0.0000    0.0000   -0.0000    0.0000    0.0000
   50 H10    2pz        0.0068    0.0110   -0.0121   -0.0125   -0.0162   -0.0274   -0.0528    0.0943   -0.1342   -0.3257
 
 
      Orbital               21        22        23        24        25        26        27        28        29        30
      Energy            0.7484    0.8477    0.8477    0.8592    0.8592    0.8778    0.8778    0.9023    0.9023    0.9312
      Occ. No.          0.0000    0.0000    0.0000    0.0000    0.0000    0.0000    0.0000    0.0000    0.0000    0.0000
 
    1 H1     1s        -0.1140   -0.0000   -0.0000    0.0000   -0.0000   -0.0000   -0.0000    0.0000    0.0000   -0.0000
    2 H1     2s        -0.1665   -0.0000    0.0000    0.0000   -0.0000   -0.0000   -0.0000    0.0000   -0.0000    0.0000
    3 H1     2px       -0.0000    0.1073    0.0339   -0.2128    0.0449   -0.2577    0.1686    0.3177    0.2026    0.3679
    4 H1     2py       -0.0000    0.0339   -0.1073    0.0449    0.2128    0.1686    0.2577   -0.2026    0.3177   -0.1942
    5 H1     2pz        0.3076    0.0000   -0.0000    0.0000    0.0000    0.0000    0.0000   -0.0000    0.0000   -0.0000
    6 H2     1s         0.1069   -0.0000    0.0000   -0.0000    0.0000   -0.0000    0.0000    0.0000    0.0000    0.0000
    7 H2     2s         0.2850    0.0000   -0.0000   -0.0000    0.0000   -0.0000    0.0000    0.0000    0.0000    0.0000
    8 H2     2px       -0.0000    0.2083    0.0659   -0.3627    0.0766   -0.3426    0.2242    0.2701    0.1722    0.1124
    9 H2     2py       -0.0000    0.0659   -0.2083    0.0766    0.3627    0.2242    0.3426   -0.1722    0.2701   -0.0593
   10 H2     2pz       -0.3406   -0.0000    0.0000    0.0000   -0.0000    0.0000   -0.0000   -0.0000   -0.0000    0.0000
   11 H3     1s        -0.0939   -0.0000    0.0000    0.0000   -0.0000   -0.0000   -0.0000   -0.0000   -0.0000   -0.0000
   12 H3     2s        -0.2549   -0.0000    0.0000    0.0000   -0.0000    0.0000   -0.0000   -0.0000   -0.0000   -0.0000
   13 H3     2px       -0.0000    0.2926    0.0926   -0.3966    0.0837   -0.1886    0.1235   -0.0970   -0.0619   -0.3391
   14 H3     2py       -0.0000    0.0926   -0.2926    0.0837    0.3966    0.1235    0.1886    0.0619   -0.0970    0.1790
   15 H3     2pz        0.2796    0.0000   -0.0000   -0.0000    0.0000   -0.0000    0.0000    0.0000    0.0000    0.0000
   16 H4     1s         0.0610    0.0000    0.0000   -0.0000    0.0000   -0.0000    0.0000   -0.0000    0.0000    0.0000
   17 H4     2s         0.1577    0.0000   -0.0000   -0.0000    0.0000    0.0000    0.0000   -0.0000    0.0000    0.0000
   18 H4     2px       -0.0000    0.3525    0.1115   -0.3037    0.0641    0.0953   -0.0624   -0.3482   -0.2220   -0.2057
   19 H4     2py       -0.0000    0.1115   -0.3525    0.0641    0.3037   -0.0624   -0.0953    0.2220   -0.3482    0.1086
   20 H4     2pz       -0.2115   -0.0000    0.0000   -0.0000   -0.0000    0.0000   -0.0000    0.0000   -0.0000    0.0000
   21 H5     1s        -0.0201    0.0000   -0.0000   -0.0000    0.0000   -0.0000    0.0000   -0.0000   -0.0000    0.0000
   22 H5     2s        -0.0517   -0.0000    0.0000    0.0000   -0.0000   -0.0000   -0.0000    0.0000   -0.0000   -0.0000
   23 H5     2px       -0.0000    0.3838    0.1214   -0.1129    0.0238    0.3144   -0.2057   -0.1901   -0.1212    0.2834
   24 H5     2py        0.0000    0.1214   -0.3838    0.0238    0.1129   -0.2057   -0.3144    0.1212   -0.1901   -0.1496
   25 H5     2pz        0.1736    0.0000    0.0000    0.0000    0.0000   -0.0000   -0.0000   -0.0000    0.0000   -0.0000
   26 H6     1s        -0.0201    0.0000    0.0000   -0.0000    0.0000    0.0000   -0.0000   -0.0000    0.0000    0.0000
   27 H6     2s        -0.0517    0.0000   -0.0000   -0.0000    0.0000    0.0000    0.0000   -0.0000    0.0000    0.0000
   28 H6     2px        0.0000    0.3838    0.1214    0.1129   -0.0238    0.3144   -0.2057    0.1901    0.1212    0.2834
   29 H6     2py        0.0000    0.1214   -0.3838   -0.0238   -0.1129   -0.2057   -0.3144   -0.1212    0.1901   -0.1496
   30 H6     2pz       -0.1736   -0.0000   -0.0000   -0.0000    0.0000    0.0000    0.0000   -0.0000    0.0000    0.0000
   31 H7     1s         0.0610    0.0000    0.0000    0.0000    0.0000   -0.0000   -0.0000    0.0000    0.0000   -0.0000
   32 H7     2s         0.1577   -0.0000   -0.0000    0.0000   -0.0000   -0.0000   -0.0000    0.0000   -0.0000   -0.0000
   33 H7     2px       -0.0000    0.3525    0.1115    0.3037   -0.0641    0.0953   -0.0624    0.3482    0.2220   -0.2057
   34 H7     2py       -0.0000    0.1115   -0.3525   -0.0641   -0.3037   -0.0624   -0.0953   -0.2220    0.3482    0.1086
   35 H7     2pz        0.2115   -0.0000    0.0000   -0.0000    0.0000   -0.0000    0.0000   -0.0000    0.0000   -0.0000
   36 H8     1s        -0.0939   -0.0000    0.0000   -0.0000    0.0000    0.0000    0.0000   -0.0000    0.0000    0.0000
   37 H8     2s        -0.2549    0.0000   -0.0000    0.0000    0.0000    0.0000    0.0000   -0.0000    0.0000    0.0000
   38 H8     2px       -0.0000    0.2926    0.0926    0.3966   -0.0837   -0.1886    0.1235    0.0970    0.0619   -0.3391
   39 H8     2py       -0.0000    0.0926   -0.2926   -0.0837   -0.3966    0.1235    0.1886   -0.0619    0.0970    0.1790
   40 H8     2pz       -0.2796    0.0000    0.0000    0.0000   -0.0000   -0.0000   -0.0000    0.0000   -0.0000   -0.0000
   41 H9     1s         0.1069   -0.0000   -0.0000    0.0000   -0.0000    0.0000    0.0000    0.0000   -0.0000    0.0000
   42 H9     2s         0.2850    0.0000    0.0000    0.0000   -0.0000   -0.0000   -0.0000    0.0000   -0.0000   -0.0000
   43 H9     2px        0.0000    0.2083    0.0659    0.3627   -0.0766   -0.3426    0.2242   -0.2701   -0.1722    0.1124
   44 H9     2py        0.0000    0.0659   -0.2083   -0.0766   -0.3627    0.2242    0.3426    0.1722   -0.2701   -0.0593
   45 H9     2pz        0.3406   -0.0000   -0.0000   -0.0000    0.0000    0.0000    0.0000   -0.0000    0.0000    0.0000
   46 H10    1s        -0.1140    0.0000   -0.0000    0.0000    0.0000   -0.0000   -0.0000    0.0000   -0.0000    0.0000
   47 H10    2s        -0.1665   -0.0000   -0.0000   -0.0000    0.0000    0.0000    0.0000    0.0000    0.0000    0.0000
   48 H10    2px        0.0000    0.1073    0.0339    0.2128   -0.0449   -0.2577    0.1686   -0.3177   -0.2026    0.3679
   49 H10    2py        0.0000    0.0339   -0.1073   -0.0449   -0.2128    0.1686    0.2577    0.2026   -0.3177   -0.1942
   50 H10    2pz       -0.3076    0.0000    0.0000    0.0000   -0.0000   -0.0000   -0.0000    0.0000   -0.0000   -0.0000
 
 
      Orbital               31        32        33        34        35        36        37        38        39        40
      Energy            0.9312    0.9631    0.9631    0.9945    0.9945    1.0231    1.0231    1.0462    1.0462    1.0612
      Occ. No.          0.0000    0.0000    0.0000    0.0000    0.0000    0.0000    0.0000    0.0000    0.0000    0.0000
 
    1 H1     1s        -0.0000    0.0000   -0.0000    0.0000    0.0000   -0.0000   -0.0000   -0.0000    0.0000    0.0000
    2 H1     2s         0.0000   -0.0000    0.0000   -0.0000   -0.0000    0.0000   -0.0000   -0.0000    0.0000    0.0000
    3 H1     2px       -0.1942   -0.3381   -0.2572    0.3934    0.0756   -0.3139    0.1282   -0.2073   -0.1322    0.1264
    4 H1     2py       -0.3679    0.2572   -0.3381   -0.0756    0.3934    0.1282    0.3139    0.1322   -0.2073    0.0267
    5 H1     2pz       -0.0000    0.0000    0.0000   -0.0000   -0.0000    0.0000   -0.0000    0.0000    0.0000    0.0000
    6 H2     1s        -0.0000    0.0000   -0.0000    0.0000    0.0000   -0.0000    0.0000   -0.0000   -0.0000   -0.0000
    7 H2     2s        -0.0000    0.0000   -0.0000    0.0000    0.0000   -0.0000    0.0000    0.0000   -0.0000   -0.0000
    8 H2     2px       -0.0593    0.0911    0.0693   -0.3192   -0.0613    0.4037   -0.1648    0.3432    0.2188   -0.2388
    9 H2     2py       -0.1124   -0.0693    0.0911    0.0613   -0.3192   -0.1648   -0.4037   -0.2188    0.3432   -0.0504
   10 H2     2pz        0.0000   -0.0000   -0.0000    0.0000    0.0000   -0.0000    0.0000    0.0000   -0.0000   -0.0000
   11 H3     1s         0.0000    0.0000    0.0000   -0.0000   -0.0000   -0.0000   -0.0000    0.0000    0.0000    0.0000
   12 H3     2s         0.0000    0.0000    0.0000   -0.0000   -0.0000    0.0000   -0.0000    0.0000    0.0000    0.0000
   13 H3     2px        0.1790    0.3131    0.2381   -0.1267   -0.0243   -0.2171    0.0886   -0.3716   -0.2369    0.3327
   14 H3     2py        0.3391   -0.2381    0.3131    0.0243   -0.1267    0.0886    0.2171    0.2369   -0.3716    0.0702
   15 H3     2pz       -0.0000    0.0000   -0.0000   -0.0000    0.0000    0.0000    0.0000    0.0000    0.0000   -0.0000
   16 H4     1s        -0.0000    0.0000   -0.0000    0.0000    0.0000   -0.0000    0.0000    0.0000   -0.0000   -0.0000
   17 H4     2s        -0.0000   -0.0000   -0.0000    0.0000    0.0000   -0.0000    0.0000   -0.0000   -0.0000   -0.0000
   18 H4     2px        0.1086   -0.1837   -0.1397    0.4237    0.0814   -0.1167    0.0477    0.2834    0.1806   -0.3997
   19 H4     2py        0.2057    0.1397   -0.1837   -0.0814    0.4237    0.0477    0.1167   -0.1806    0.2834   -0.0844
   20 H4     2pz        0.0000   -0.0000    0.0000    0.0000   -0.0000   -0.0000   -0.0000   -0.0000   -0.0000    0.0000
   21 H5     1s         0.0000    0.0000    0.0000   -0.0000    0.0000    0.0000   -0.0000    0.0000    0.0000   -0.0000
   22 H5     2s         0.0000    0.0000    0.0000   -0.0000   -0.0000    0.0000   -0.0000    0.0000    0.0000   -0.0000
   23 H5     2px       -0.1496   -0.2599   -0.1977   -0.2294   -0.0441    0.3720   -0.1519   -0.1052   -0.0671    0.4348
   24 H5     2py       -0.2834    0.1977   -0.2599    0.0441   -0.2294   -0.1519   -0.3720    0.0671   -0.1052    0.0918
   25 H5     2pz       -0.0000    0.0000   -0.0000    0.0000   -0.0000    0.0000   -0.0000    0.0000    0.0000   -0.0000
   26 H6     1s         0.0000   -0.0000   -0.0000    0.0000    0.0000   -0.0000    0.0000   -0.0000   -0.0000    0.0000
   27 H6     2s        -0.0000   -0.0000   -0.0000    0.0000    0.0000   -0.0000    0.0000   -0.0000   -0.0000    0.0000
   28 H6     2px       -0.1496    0.2599    0.1977   -0.2294   -0.0441   -0.3720    0.1519   -0.1052   -0.0671   -0.4348
   29 H6     2py       -0.2834   -0.1977    0.2599    0.0441   -0.2294    0.1519    0.3720    0.0671   -0.1052   -0.0918
   30 H6     2pz        0.0000    0.0000    0.0000   -0.0000    0.0000    0.0000    0.0000   -0.0000   -0.0000    0.0000
   31 H7     1s        -0.0000    0.0000    0.0000   -0.0000   -0.0000   -0.0000   -0.0000   -0.0000    0.0000   -0.0000
   32 H7     2s         0.0000    0.0000    0.0000   -0.0000   -0.0000    0.0000   -0.0000    0.0000    0.0000   -0.0000
   33 H7     2px        0.1086    0.1837    0.1397    0.4237    0.0814    0.1167   -0.0477    0.2834    0.1806    0.3997
   34 H7     2py        0.2057   -0.1397    0.1837   -0.0814    0.4237   -0.0477   -0.1167   -0.1806    0.2834    0.0844
   35 H7     2pz       -0.0000   -0.0000   -0.0000    0.0000   -0.0000   -0.0000    0.0000   -0.0000   -0.0000    0.0000
   36 H8     1s         0.0000    0.0000   -0.0000    0.0000   -0.0000    0.0000   -0.0000   -0.0000   -0.0000    0.0000
   37 H8     2s        -0.0000   -0.0000   -0.0000    0.0000    0.0000   -0.0000    0.0000   -0.0000   -0.0000    0.0000
   38 H8     2px        0.1790   -0.3131   -0.2381   -0.1267   -0.0243    0.2171   -0.0886   -0.3716   -0.2369   -0.3327
   39 H8     2py        0.3391    0.2381   -0.3131    0.0243   -0.1267   -0.0886   -0.2171    0.2369   -0.3716   -0.0702
   40 H8     2pz        0.0000    0.0000    0.0000   -0.0000   -0.0000    0.0000   -0.0000    0.0000    0.0000   -0.0000
   41 H9     1s        -0.0000    0.0000    0.0000   -0.0000   -0.0000   -0.0000   -0.0000   -0.0000    0.0000   -0.0000
   42 H9     2s         0.0000    0.0000    0.0000   -0.0000   -0.0000   -0.0000   -0.0000    0.0000    0.0000   -0.0000
   43 H9     2px       -0.0593   -0.0911   -0.0693   -0.3192   -0.0613   -0.4037    0.1648    0.3432    0.2188    0.2388
   44 H9     2py       -0.1124    0.0693   -0.0911    0.0613   -0.3192    0.1648    0.4037   -0.2188    0.3432    0.0504
   45 H9     2pz        0.0000   -0.0000   -0.0000    0.0000    0.0000    0.0000    0.0000   -0.0000   -0.0000    0.0000
   46 H10    1s        -0.0000   -0.0000    0.0000   -0.0000    0.0000    0.0000   -0.0000    0.0000   -0.0000    0.0000
   47 H10    2s        -0.0000   -0.0000   -0.0000    0.0000    0.0000    0.0000    0.0000    0.0000   -0.0000    0.0000
   48 H10    2px       -0.1942    0.3381    0.2572    0.3934    0.0756    0.3139   -0.1282   -0.2073   -0.1322   -0.1264
   49 H10    2py       -0.3679   -0.2572    0.3381   -0.0756    0.3934   -0.1282   -0.3139    0.1322   -0.2073   -0.0267
   50 H10    2pz       -0.0000    0.0000    0.0000   -0.0000   -0.0000   -0.0000    0.0000   -0.0000    0.0000   -0.0000
 
 
      Orbital               41        42        43        44        45        46        47        48        49        50
      Energy            1.0612    1.0689    1.0754    1.0843    1.1130    1.1669    1.2307    1.2959    1.3525    1.3914
      Occ. No.          0.0000    0.0000    0.0000    0.0000    0.0000    0.0000    0.0000    0.0000    0.0000    0.0000
 
    1 H1     1s         0.0000   -0.1021   -0.0613    0.1238   -0.1252    0.1129   -0.1015    0.0869   -0.0651    0.0352
    2 H1     2s         0.0000   -0.1967   -0.1381    0.2419   -0.2647    0.2281   -0.1834    0.1363   -0.0896    0.0443
    3 H1     2px        0.0267   -0.0000    0.0000    0.0000   -0.0000    0.0000   -0.0000    0.0000   -0.0000   -0.0000
    4 H1     2py       -0.1264   -0.0000    0.0000    0.0000   -0.0000    0.0000    0.0000   -0.0000    0.0000   -0.0000
[...]
   31 H7     1s         0.0000    0.4164    0.2716    0.4802   -0.0991   -0.0782    0.0249    0.0761    0.0352   -0.0091
   32 H7     2s         0.0000    0.8512    0.5512    0.9611   -0.1777   -0.1143    0.0360    0.0831    0.0347   -0.0040
   33 H7     2px        0.0844    0.0000   -0.0000   -0.0000    0.0000   -0.0000   -0.0000   -0.0000    0.0000   -0.0000
   34 H7     2py       -0.3997    0.0000    0.0000    0.0000    0.0000   -0.0000    0.0000   -0.0000    0.0000   -0.0000
   35 H7     2pz       -0.0000    0.1507   -0.4470    0.1514    0.2616   -0.2537   -0.4761   -0.1331    0.3924    0.4739
   36 H8     1s        -0.0000   -0.4445    0.0205   -0.4878   -0.1360    0.0134    0.0684    0.0452   -0.0018   -0.0205
   37 H8     2s        -0.0000   -0.9077    0.0430   -0.9735   -0.2585    0.0076    0.0730    0.0338   -0.0110   -0.0211
   38 H8     2px       -0.0702   -0.0000    0.0000    0.0000   -0.0000   -0.0000   -0.0000    0.0000   -0.0000   -0.0000
   39 H8     2py        0.3327    0.0000   -0.0000   -0.0000   -0.0000    0.0000   -0.0000   -0.0000   -0.0000    0.0000
   40 H8     2pz        0.0000    0.1350    0.2627    0.0504   -0.4409   -0.4407   -0.1399    0.2711    0.5048    0.3898
   41 H9     1s         0.0000    0.2905   -0.1304    0.3403    0.2672    0.1822    0.1021    0.0360   -0.0046   -0.0134
   42 H9     2s         0.0000    0.5900   -0.2670    0.6779    0.5069    0.3102    0.1585    0.0633    0.0151   -0.0005
   43 H9     2px        0.0504    0.0000   -0.0000   -0.0000   -0.0000    0.0000   -0.0000   -0.0000    0.0000    0.0000
   44 H9     2py       -0.2388    0.0000   -0.0000   -0.0000   -0.0000   -0.0000    0.0000    0.0000   -0.0000    0.0000
   45 H9     2pz       -0.0000   -0.2676    0.0890   -0.2791   -0.0783    0.1738    0.3962    0.5102    0.4704    0.2810
   46 H10    1s        -0.0000   -0.1021    0.0613   -0.1238   -0.1252   -0.1129   -0.1015   -0.0869   -0.0651   -0.0352
   47 H10    2s        -0.0000   -0.1967    0.1381   -0.2419   -0.2647   -0.2281   -0.1834   -0.1363   -0.0896   -0.0443
   48 H10    2px       -0.0267   -0.0000   -0.0000    0.0000    0.0000    0.0000    0.0000    0.0000   -0.0000   -0.0000
   49 H10    2py        0.1264    0.0000    0.0000   -0.0000    0.0000   -0.0000    0.0000   -0.0000    0.0000   -0.0000
   50 H10    2pz        0.0000    0.1830   -0.2065    0.2521    0.4057    0.4315    0.4148    0.3555    0.2599    0.1372
--
 
      Von Neumann Entropy (Root  1) =  4.70073
 

      Mulliken population analysis for root number:  1
      -----------------------------------------------
 
 
++    Molecular charges:
      ------------------
 
      Mulliken charges per centre and basis function type
      ---------------------------------------------------
 
                H1      H2      H3      H4      H5      H6      H7      H8      H9      H10   
      1s       0.9916  1.0015  1.0020  1.0016  1.0018  1.0018  1.0016  1.0020  1.0015  0.9916
      2s       0.0062  0.0003 -0.0025 -0.0020 -0.0022 -0.0022 -0.0020 -0.0025  0.0003  0.0062
      2px      0.0000  0.0000  0.0000  0.0000  0.0000  0.0000  0.0000  0.0000  0.0000  0.0000
      2pz      0.0000  0.0005  0.0004  0.0004  0.0004  0.0004  0.0004  0.0004  0.0005  0.0000
      2py      0.0000  0.0000  0.0000  0.0000  0.0000  0.0000  0.0000  0.0000  0.0000  0.0000
      Total    0.9978  1.0022  0.9999  1.0000  1.0000  1.0000  1.0000  0.9999  1.0022  0.9978
 
      N-E      0.0022 -0.0022  0.0001 -0.0000  0.0000  0.0000 -0.0000  0.0001 -0.0022  0.0022
 
      Total electronic charge=   10.000000
 
      Total            charge=   -0.000000
--
 
 

      Expectation values of various properties for root number:  1
      -----------------------------------------------------------
 
 
++    Molecular properties:
      ---------------------
 
      Charge (e):
                      =   -0.0000
      Dipole Moment (Debye):
      Origin of the operator (Ang)=    0.0000    0.0000    0.0000
                   X=  3.7189E-13               Y= -7.8153E-14               Z= -4.4789E-12           Total=  4.4950E-12
      Quadrupole Moment (Debye*Ang):
      Origin of the operator (Ang)=    0.0000    0.0000   11.3182
                  XX= -1.5223E+01              XY=  4.4746E-27              XZ= -2.2551E-12              YY= -1.5223E+01
                  YZ=  7.1142E-13              ZZ= -1.4543E+01
      In traceless form (Debye*Ang)
                  XX= -3.3993E-01              XY=  6.7120E-27              XZ= -3.3827E-12              YY= -3.3993E-01
                  YZ=  1.0671E-12              ZZ=  6.7987E-01
--
 

      LoProp population analysis for root number:  1
      -----------------------------------------------
 
 
++    LoProp analysis:
      ----------------
 
 
 
  Input file to MOLDEN was generated!
 
 
++    Static properties:
      ------------------
 
 
      LoProp Charges per center
 

                   H1       H2       H3       H4       H5       H6       H7       H8       H9       H10   
      Nuclear      1.0000   1.0000   1.0000   1.0000   1.0000   1.0000   1.0000   1.0000   1.0000   1.0000
      Electronic  -1.0001  -0.9999  -1.0000  -1.0000  -1.0000  -1.0000  -1.0000  -1.0000  -0.9999  -1.0001
 
      Total       -0.0001   0.0001   0.0000  -0.0000   0.0000   0.0000  -0.0000   0.0000   0.0001  -0.0001
--
 
 
      Natural Bond Order analysis for root number:  1
 
++    Natural Bond Order analysis
      ---------------------------
      Based on LoProp computed density
      -------------------------------------------------------------------------------------
      Atom A       Atom B       Bond Order
      -------------------------------------------------------------------------------------
      The remaining   10.000 electrons are to be considered as diffuse
--
 
--
 
 
  Input file to MOLDEN was generated!
 
      Average orbitals are written to the RASORB file
      Natural orbitals for root   1 are written to the RASORB.1 file
      Spin density orbitals for root   1 are written to the SPDORB.1 file
 
--- Stop Module: rasscf at Mon Nov 18 18:29:33 2024 /rc=_RC_ALL_IS_WELL_ ---
*** files: H10_2.52.LprOrb H10_2.52.rasscf.molden H10_2.52.LoProp.molden H10_2.52.RasOrb H10_2.52.RasOrb.1 H10_2.52.rasscf.h5 H10_2.52.SpdOrb.1 xmldump
    saved to directory /home/grierjones/DDCASPT2/hydrogen_comps/H10_chain/H10_2.52
--- Module rasscf spent 9 seconds ---

>>> COPY /tmp/H10_2.52/H10_2.52.rasscf.h5 /home/grierjones/DDCASPT2/hydrogen_comps/H10_chain/H10_2.52/

>>> COPY /tmp/H10_2.52/GMJ_Fock_MO.csv /home/grierjones/DDCASPT2/hydrogen_comps/H10_chain/H10_2.52/H10_2.52.GMJ_Fock_MO.csv

>>> COPY /tmp/H10_2.52/GMJ_PT2_Fock_MO.csv /home/grierjones/DDCASPT2/hydrogen_comps/H10_chain/H10_2.52/H10_2.52.GMJ_PT2_Fock_MO.csv

*** symbolic link created: INPORB -> H10_2.52.RasOrb
--- Start Module: motra at Mon Nov 18 18:29:33 2024 ---
 
()()()()()()()()()()()()()()()()()()()()()()()()()()()()()()()()()()()()()()()()()()()()()()()()()()

                                               &MOTRA

                                   only a single process is used
                       available to each process: 2.0 GB of memory, 1 thread?
()()()()()()()()()()()()()()()()()()()()()()()()()()()()()()()()()()()()()()()()()()()()()()()()()()
 
 
      *** WARNING: Default frozen orbitals is overwritten by user input.
      *** Default values:   0
 
      Header of the integral files:
      
       Integrals generated by seward 4.2.0  , Mon Nov 18 18:29:23 2024
 
 
      Header of MO coefficients source file:
      * RASSCF average (pseudo-natural) orbitals                                      
 
 
      Cartesian coordinates in Angstrom:
      -----------------------------------------------------
      No.  Label        X            Y            Z        
      -----------------------------------------------------
       1   H1         0.00000000   0.00000000   0.00000000
       2   H2         0.00000000   0.00000000   2.51515200
       3   H3         0.00000000   0.00000000   5.03030300
       4   H4         0.00000000   0.00000000   7.54545500
       5   H5         0.00000000   0.00000000  10.06060600
       6   H6         0.00000000   0.00000000  12.57575800
       7   H7         0.00000000   0.00000000  15.09090900
       8   H8         0.00000000   0.00000000  17.60606100
       9   H9         0.00000000   0.00000000  20.12121200
      10   H10        0.00000000   0.00000000  22.63636400
      -----------------------------------------------------
      Nuclear repulsion energy =    4.05846736
 
      Orbital specifications:
      -----------------------
 
      Symmetry species:              1
      Number of basis functions:    50
      Frozen orbitals:               0
      Deleted orbitals:              0
      Number of orbitals used:      50

       SYMMETRY  BASIS FUNCTIONS       ORBITALS      INTEGRALS   CPU(SEC)  I/O(SEC)
 
        1 1 1 1   50  50  50  50    50  50  50  50      813450       0.00      0.00

       TOTAL CPU TIME(SEC)    0.37TOTAL I/O TIME(SEC)    1.05
 
--- Stop Module: motra at Mon Nov 18 18:29:34 2024 /rc=_RC_ALL_IS_WELL_ ---
*** files: xmldump
    saved to directory /home/grierjones/DDCASPT2/hydrogen_comps/H10_chain/H10_2.52
--- Module motra spent 1 second ---

>>> COPY /tmp/H10_2.52/GMJ_one_int_indx.csv /home/grierjones/DDCASPT2/hydrogen_comps/H10_chain/H10_2.52/H10_2.52.GMJ_one_int_indx.csv

>>> COPY /tmp/H10_2.52/GMJ_one_int.csv /home/grierjones/DDCASPT2/hydrogen_comps/H10_chain/H10_2.52/H10_2.52.GMJ_one_int.csv

>>> COPY /tmp/H10_2.52/GMJ_two_int_indx.csv /home/grierjones/DDCASPT2/hydrogen_comps/H10_chain/H10_2.52/H10_2.52.GMJ_two_int_indx.csv

>>> COPY /tmp/H10_2.52/GMJ_two_int.csv /home/grierjones/DDCASPT2/hydrogen_comps/H10_chain/H10_2.52/H10_2.52.GMJ_two_int.csv

*** symbolic link created: INPORB -> H10_2.52.RasOrb
--- Start Module: caspt2 at Mon Nov 18 18:29:34 2024 ---
 
()()()()()()()()()()()()()()()()()()()()()()()()()()()()()()()()()()()()()()()()()()()()()()()()()()

                                              &CASPT2

                                   only a single process is used
                       available to each process: 2.0 GB of memory, 1 thread?
()()()()()()()()()()()()()()()()()()()()()()()()()()()()()()()()()()()()()()()()()()()()()()()()()()
 
 Cholesky algorithm in CASPT2 =    1
 
 ###############################################################################
 ###############################################################################
 ###                                                                         ###
 ###                                                                         ###
 ###    User changed nr of frozen orbitals.                                  ###
 ###                                                                         ###
 ###                                                                         ###
 ###############################################################################
 ###############################################################################
 
++    Wave function specifications:
      -----------------------------
 
      Number of closed shell electrons           0
      Number of electrons in active shells      10
      Max number of holes in RAS1 space          0
      Max number of electrons in RAS3 space      0
      Number of inactive orbitals                0
      Number of active orbitals                 10
      Number of secondary orbitals              40
      Spin quantum number                      0.0
      State symmetry                             1
      Number of CSFs                         19404
      Number of root(s) available                1
      Root passed to geometry opt.               1
      A file JOBMIX will be created.
      This is a CASSCF or RASSCF reference function
--
 
++    Orbital specifications:
      -----------------------
 
      Symmetry species                           1
                                                 a
      Frozen orbitals                            0
      Inactive orbitals                          0
      Active orbitals                           10
      Secondary orbitals                        40
      Deleted orbitals                           0
      Number of basis functions                 50
--
 
      Type of Fock operator: STANDARD
      Type of 0-order Hamiltonian: STANDARD WITH DEFAULT IPEA
        "IP-EA" denominator shift =      0.25
      The input orbitals and the CI vector will be transformed.
 
--------------------------------------------------------------------------------
 Estimated memory requirements:
  POLY3 :                  3551880
  RHS:                      835500
  SIGMA :                   430400
  PRPCTL:                        0
 Available workspace:    230354915
 
++ CASPT2 computation for group   1
 
********************************************************************************
 Multi-State initialization phase begins for group   1
--------------------------------------------------------------------------------
********************************************************************************
 Compute H0 matrices for state    1
--------------------------------------------------------------------------------
--------------------------------------------------------------------------------
 H0 matrices have been computed.
 
********************************************************************************
  CASPT2 EQUATION SOLUTION
--------------------------------------------------------------------------------
 
  Total nr of CASPT2 parameters:
   Before reduction:      120200
   After  reduction:      119480
 
 The contributions to the second order correlation energy in atomic units.
-----------------------------------------------------------------------------------------------------------------------------
  IT.      VJTU        VJTI        ATVX        AIVX        VJAI        BVAT        BJAT        BJAI        TOTAL       RNORM  
-----------------------------------------------------------------------------------------------------------------------------
   1     0.000000    0.000000   -0.001185    0.000000    0.000000   -0.002954    0.000000    0.000000   -0.004139    0.000853
   2     0.000000    0.000000   -0.001197    0.000000    0.000000   -0.002958    0.000000    0.000000   -0.004154    0.000164
   3     0.000000    0.000000   -0.001199    0.000000    0.000000   -0.002958    0.000000    0.000000   -0.004157    0.000047
   4     0.000000    0.000000   -0.001198    0.000000    0.000000   -0.002958    0.000000    0.000000   -0.004156    0.000009
   5     0.000000    0.000000   -0.001198    0.000000    0.000000   -0.002958    0.000000    0.000000   -0.004156    0.000002
-------------------------------------------------------------------------------------------------------------------
 
  FINAL CASPT2 RESULT:
 
  Correlation energy /Case, /Symm, and sums:
 VJTU      0.00000000  0.00000000
 VJTIP     0.00000000  0.00000000
 VJTIM     0.00000000  0.00000000
 ATVX     -0.00119796 -0.00119796
 AIVX      0.00000000  0.00000000
 VJAIP     0.00000000  0.00000000
 VJAIM     0.00000000  0.00000000
 BVATP    -0.00267519 -0.00267519
 BVATM    -0.00028312 -0.00028312
 BJATP     0.00000000  0.00000000
 BJATM     0.00000000  0.00000000
 BJAIP     0.00000000  0.00000000
 BJAIM     0.00000000  0.00000000
 Summed:  -0.00415628 -0.00415628
 
      Reference energy:          -5.0032341889
      E2 (Non-variational):      -0.0041562778
      E2 (Variational):          -0.0041562773
      Total energy:              -5.0073904662
      Residual norm:              0.0000003338
      Reference weight:           0.99728
 
      Contributions to the CASPT2 correlation energy
      Active & Virtual Only:         -0.0041562778
      One Inactive Excited:           0.0000000000
      Two Inactive Excited:           0.0000000000
 
 
++ Denominators, etc.
----------------------------------------------------------------------------------------------------
 Report on small energy denominators, large coefficients, and large energy contributions.
CASE  SYMM ACTIVE-MIX  NON-ACTIVE INDICES          DENOMINATOR     RHS VALUE       COEFFICIENT     CONTRIBUTION
--
 
   (Skipping property calculation,
    use PROP keyword to activate)
--
 
  Total CASPT2 energies:
::    CASPT2 Root  1     Total energy:     -5.00739047
 
  A NEW JOBIPH FILE NAMED 'JOBMIX' IS PREPARED.
********************************************************************************
--- Stop Module: caspt2 at Mon Nov 18 18:29:37 2024 /rc=_RC_ALL_IS_WELL_ ---
*** files: xmldump
    saved to directory /home/grierjones/DDCASPT2/hydrogen_comps/H10_chain/H10_2.52
--- Module caspt2 spent 2 seconds ---

>>> EXPORT i = B

>>> EXPORT j = P

>>> IF (-FILE GMJ_e2_${i}_${j}.csv)
(Skipped)

>>> END FOREACH

>>> EXPORT j = M

>>> IF (-FILE GMJ_e2_${i}_${j}.csv)
(Skipped)

>>> END FOREACH

>>> END FOREACH

>>> EXPORT i = E

>>> EXPORT j = P

>>> IF (-FILE GMJ_e2_${i}_${j}.csv)
(Skipped)

>>> END FOREACH

>>> EXPORT j = M

>>> IF (-FILE GMJ_e2_${i}_${j}.csv)
(Skipped)

>>> END FOREACH

>>> END FOREACH

>>> EXPORT i = F

>>> EXPORT j = P

>>> IF (-FILE GMJ_e2_${i}_${j}.csv)

>>> COPY /tmp/H10_2.52/GMJ_RHS_F_P.csv /home/grierjones/DDCASPT2/hydrogen_comps/H10_chain/H10_2.52/GMJ_RHS_F_P.csv

>>> COPY /tmp/H10_2.52/GMJ_IVECW_F_P.csv /home/grierjones/DDCASPT2/hydrogen_comps/H10_chain/H10_2.52/GMJ_IVECW_F_P.csv

>>> COPY /tmp/H10_2.52/GMJ_IVECX_F_P.csv /home/grierjones/DDCASPT2/hydrogen_comps/H10_chain/H10_2.52/GMJ_IVECX_F_P.csv

>>> COPY /tmp/H10_2.52/GMJ_IVECC2_F_P.csv /home/grierjones/DDCASPT2/hydrogen_comps/H10_chain/H10_2.52/GMJ_IVECC2_F_P.csv

>>> COPY /tmp/H10_2.52/GMJ_e2_F_P.csv /home/grierjones/DDCASPT2/hydrogen_comps/H10_chain/H10_2.52/GMJ_e2_F_P.csv

>>> END FOREACH

>>> EXPORT j = M

>>> IF (-FILE GMJ_e2_${i}_${j}.csv)

>>> COPY /tmp/H10_2.52/GMJ_RHS_F_M.csv /home/grierjones/DDCASPT2/hydrogen_comps/H10_chain/H10_2.52/GMJ_RHS_F_M.csv

>>> COPY /tmp/H10_2.52/GMJ_IVECW_F_M.csv /home/grierjones/DDCASPT2/hydrogen_comps/H10_chain/H10_2.52/GMJ_IVECW_F_M.csv

>>> COPY /tmp/H10_2.52/GMJ_IVECX_F_M.csv /home/grierjones/DDCASPT2/hydrogen_comps/H10_chain/H10_2.52/GMJ_IVECX_F_M.csv

>>> COPY /tmp/H10_2.52/GMJ_IVECC2_F_M.csv /home/grierjones/DDCASPT2/hydrogen_comps/H10_chain/H10_2.52/GMJ_IVECC2_F_M.csv

>>> COPY /tmp/H10_2.52/GMJ_e2_F_M.csv /home/grierjones/DDCASPT2/hydrogen_comps/H10_chain/H10_2.52/GMJ_e2_F_M.csv

>>> END FOREACH

>>> END FOREACH

>>> EXPORT i = G

>>> EXPORT j = P

>>> IF (-FILE GMJ_e2_${i}_${j}.csv)
(Skipped)

>>> END FOREACH

>>> EXPORT j = M

>>> IF (-FILE GMJ_e2_${i}_${j}.csv)
(Skipped)

>>> END FOREACH

>>> END FOREACH

>>> EXPORT i = H

>>> EXPORT j = P

>>> IF (-FILE GMJ_e2_${i}_${j}.csv)
(Skipped)

>>> END FOREACH

>>> EXPORT j = M

>>> IF (-FILE GMJ_e2_${i}_${j}.csv)
(Skipped)

>>> END FOREACH

>>> END FOREACH

>>> EXPORT i = A

>>> IF (-FILE GMJ_e2_$i.csv)
(Skipped)

>>> END FOREACH

>>> EXPORT i = C

>>> IF (-FILE GMJ_e2_$i.csv)

>>> COPY /tmp/H10_2.52/GMJ_RHS_C.csv /home/grierjones/DDCASPT2/hydrogen_comps/H10_chain/H10_2.52/GMJ_RHS_C.csv

>>> COPY /tmp/H10_2.52/GMJ_IVECW_C.csv /home/grierjones/DDCASPT2/hydrogen_comps/H10_chain/H10_2.52/GMJ_IVECW_C.csv

>>> COPY /tmp/H10_2.52/GMJ_IVECX_C.csv /home/grierjones/DDCASPT2/hydrogen_comps/H10_chain/H10_2.52/GMJ_IVECX_C.csv

>>> COPY /tmp/H10_2.52/GMJ_IVECC2_C.csv /home/grierjones/DDCASPT2/hydrogen_comps/H10_chain/H10_2.52/GMJ_IVECC2_C.csv

>>> COPY /tmp/H10_2.52/GMJ_e2_C.csv /home/grierjones/DDCASPT2/hydrogen_comps/H10_chain/H10_2.52/GMJ_e2_C.csv

>>> END FOREACH

>>> EXPORT i = D

>>> IF (-FILE GMJ_e2_$i.csv)
(Skipped)

>>> END FOREACH

.########################.
.# Non-zero return code #.
.########################.

    Timing: Wall=14.22 User=12.58 System=1.63
****************************************
*** WorkDir at /tmp/H10_2.52 cleaned ***
****************************************
