[Molden Format]
[N_Atoms]
                     2
[Atoms] (AU)
F1          1      9           0.00000000      0.00000000      0.00000000
O2          2      8           0.00000000      0.00000000      1.51178090
[Charge] (Mulliken)
  0.000000000000000E+000
  0.000000000000000E+000
[GTO] (AU)
   1
   s  14
  1.031094600E+05  1.713099991E-04
  1.528100700E+04  7.123999962E-04
  3.441539200E+03  2.990479984E-03
  9.670948300E+02  1.164036994E-02
  3.140353400E+02  3.968642979E-02
  1.134423000E+02  1.128546094E-01
  4.464472700E+01  2.473650687E-01
  1.894287400E+01  3.672702681E-01
  8.532743000E+00  2.896286985E-01
  3.919401000E+00  7.786681959E-02
  1.568157000E+00  4.562139976E-03
  6.232900000E-01  2.468879987E-03
  2.408610000E-01  1.106309994E-03
  8.430100000E-02  1.739699991E-04
   s  14
  1.031094600E+05 -4.044999995E-05
  1.528100700E+04 -1.682299998E-04
  3.441539200E+03 -7.084299991E-04
  9.670948300E+02 -2.767999996E-03
  3.140353400E+02 -9.611379987E-03
  1.134423000E+02 -2.833957996E-02
  4.464472700E+01 -6.839343991E-02
  1.894287400E+01 -1.237379298E-01
  8.532743000E+00 -1.512859698E-01
  3.919401000E+00 -9.099909988E-03
  1.568157000E+00  3.716257695E-01
  6.232900000E-01  5.500214393E-01
  2.408610000E-01  2.092318697E-01
  8.430100000E-02  8.074639989E-03
   p   9
  2.453302900E+02  1.024860004E-03
  5.691900500E+01  8.344290032E-03
  1.760456800E+01  4.078927016E-02
  6.274995000E+00  1.351370605E-01
  2.447030000E+00  2.798830811E-01
  9.950600000E-01  3.597966414E-01
  4.039730000E-01  3.055347412E-01
  1.548100000E-01  1.354703905E-01
  5.418400000E-02  2.804449011E-02
 
   2
   s  14
  1.053749500E+05  1.238600013E-04
  1.567924000E+04  5.120100053E-04
  3.534544700E+03  2.152910022E-03
  9.873651600E+02  8.528440089E-03
  3.159787500E+02  3.018049031E-02
  1.116542800E+02  9.099702095E-02
  4.269945100E+01  2.177936423E-01
  1.739559600E+01  3.686245738E-01
  7.438309000E+00  3.366707335E-01
  3.222862000E+00  9.657630101E-02
  1.253877000E+00  2.144520022E-03
  4.951550000E-01  1.194350012E-03
  1.916650000E-01  5.390200056E-04
  6.708300000E-02  2.103400022E-04
   s  14
  1.053749500E+05 -2.815000008E-05
  1.567924000E+04 -1.163000003E-04
  3.534544700E+03 -4.909200013E-04
  9.873651600E+02 -1.946160005E-03
  3.159787500E+02 -7.005300019E-03
  1.116542800E+02 -2.167814006E-02
  4.269945100E+01 -5.641213015E-02
  1.739559600E+01 -1.127053003E-01
  7.438309000E+00 -1.589119704E-01
  3.222862000E+00 -3.355083009E-02
  1.253877000E+00  3.531902810E-01
  4.951550000E-01  5.534199315E-01
  1.916650000E-01  2.301839106E-01
  6.708300000E-02  1.127267003E-02
   p   9
  2.000000000E+02  9.173000030E-04
  4.653336700E+01  7.377140024E-03
  1.462180900E+01  3.483515011E-02
  5.313064000E+00  1.144397004E-01
  2.102525000E+00  2.554966408E-01
  8.502230000E-01  3.722557412E-01
  3.375970000E-01  3.323314911E-01
  1.288920000E-01  1.400847905E-01
  4.511200000E-02  2.395784008E-02
 
[MO]
Sym=     1a  
Ene=   -26.4250
Spin= Alpha
Occup=    2.00000
   1         0.99934274
   2         0.00023843
   3        -0.00000000
   4         0.00000000
   5         0.00007446
   6         0.00388676
   7         0.00370084
   8         0.00000000
   9        -0.00000000
  10        -0.00297009
Sym=     2a  
Ene=   -20.7070
Spin= Alpha
Occup=    2.00000
   1        -0.00503708
   2         0.00636674
   3        -0.00000000
   4         0.00000000
   5         0.00478296
   6         0.99884346
   7         0.00033023
   8         0.00000000
   9        -0.00000000
  10        -0.00010514
Sym=     3a  
Ene=    -2.2967
Spin= Alpha
Occup=    2.00000
   1        -0.05198051
   2         0.62319974
   3        -0.00000000
   4        -0.00000000
   5         0.09781097
   6        -0.06838356
   7         0.43330878
   8        -0.00000000
   9        -0.00000000
  10        -0.12642923
Sym=     4a  
Ene=    -1.1137
Spin= Alpha
Occup=    2.00000
   1        -0.00991794
   2        -0.53684090
   3        -0.00000000
   4         0.00000000
   5         0.45926952
   6        -0.01964551
   7         0.60214643
   8         0.00000000
   9        -0.00000000
  10         0.29407709
Sym=     5a  
Ene=    -0.9731
Spin= Alpha
Occup=    2.00000
   1        -0.00000000
   2        -0.00000000
   3         0.21092190
   4         0.62678232
   5         0.00000000
   6        -0.00000000
   7         0.00000000
   8         0.16671650
   9         0.49542012
  10        -0.00000000
Sym=     6a  
Ene=    -0.9731
Spin= Alpha
Occup=    2.00000
   1        -0.00000000
   2        -0.00000000
   3         0.62678232
   4        -0.21092190
   5        -0.00000000
   6         0.00000000
   7         0.00000000
   8         0.49542012
   9        -0.16671650
  10        -0.00000000
Sym=     7a  
Ene=    -0.6104
Spin= Alpha
Occup=    2.00000
   1         0.05309067
   2         0.22017582
   3         0.00000000
   4         0.00000000
   5        -0.71768477
   6         0.07906124
   7         0.42425790
   8        -0.00000000
   9        -0.00000000
  10         0.69460516
Sym=     8a  
Ene=    -0.3943
Spin= Alpha
Occup=    1.50000
   1         0.00000000
   2         0.00000000
   3        -0.26733818
   4        -0.83884612
   5         0.00000000
   6        -0.00000000
   7        -0.00000000
   8         0.29428056
   9         0.92338514
  10         0.00000000
Sym=     9a  
Ene=    -0.3943
Spin= Alpha
Occup=    1.50000
   1        -0.00000000
   2        -0.00000000
   3        -0.83884612
   4         0.26733818
   5        -0.00000000
   6         0.00000000
   7         0.00000000
   8         0.92338514
   9        -0.29428056
  10        -0.00000000
Sym=    10a  
Ene=    -0.1306
Spin= Alpha
Occup=    0.00000
   1         0.26703573
   2         1.59652336
   3        -0.00000000
   4         0.00000000
   5         1.10465897
   6        -0.26944318
   7        -1.52094581
   8         0.00000000
   9        -0.00000000
  10         1.26304874
