[Molden Format]
[N_Atoms]
                     2
[Atoms] (AU)
F1          1      9           0.00000000      0.00000000      0.00000000
O2          2      8           0.00000000      0.00000000      1.51178090
[Charge] (Mulliken)
  2.376745359090648E-002
 -2.376745359092425E-002
[GTO] (AU)
   1
   s  14
  1.031094600E+05  1.713099991E-04
  1.528100700E+04  7.123999962E-04
  3.441539200E+03  2.990479984E-03
  9.670948300E+02  1.164036994E-02
  3.140353400E+02  3.968642979E-02
  1.134423000E+02  1.128546094E-01
  4.464472700E+01  2.473650687E-01
  1.894287400E+01  3.672702681E-01
  8.532743000E+00  2.896286985E-01
  3.919401000E+00  7.786681959E-02
  1.568157000E+00  4.562139976E-03
  6.232900000E-01  2.468879987E-03
  2.408610000E-01  1.106309994E-03
  8.430100000E-02  1.739699991E-04
   s  14
  1.031094600E+05 -4.044999995E-05
  1.528100700E+04 -1.682299998E-04
  3.441539200E+03 -7.084299991E-04
  9.670948300E+02 -2.767999996E-03
  3.140353400E+02 -9.611379987E-03
  1.134423000E+02 -2.833957996E-02
  4.464472700E+01 -6.839343991E-02
  1.894287400E+01 -1.237379298E-01
  8.532743000E+00 -1.512859698E-01
  3.919401000E+00 -9.099909988E-03
  1.568157000E+00  3.716257695E-01
  6.232900000E-01  5.500214393E-01
  2.408610000E-01  2.092318697E-01
  8.430100000E-02  8.074639989E-03
   p   9
  2.453302900E+02  1.024860004E-03
  5.691900500E+01  8.344290032E-03
  1.760456800E+01  4.078927016E-02
  6.274995000E+00  1.351370605E-01
  2.447030000E+00  2.798830811E-01
  9.950600000E-01  3.597966414E-01
  4.039730000E-01  3.055347412E-01
  1.548100000E-01  1.354703905E-01
  5.418400000E-02  2.804449011E-02
 
   2
   s  14
  1.053749500E+05  1.238600013E-04
  1.567924000E+04  5.120100053E-04
  3.534544700E+03  2.152910022E-03
  9.873651600E+02  8.528440089E-03
  3.159787500E+02  3.018049031E-02
  1.116542800E+02  9.099702095E-02
  4.269945100E+01  2.177936423E-01
  1.739559600E+01  3.686245738E-01
  7.438309000E+00  3.366707335E-01
  3.222862000E+00  9.657630101E-02
  1.253877000E+00  2.144520022E-03
  4.951550000E-01  1.194350012E-03
  1.916650000E-01  5.390200056E-04
  6.708300000E-02  2.103400022E-04
   s  14
  1.053749500E+05 -2.815000008E-05
  1.567924000E+04 -1.163000003E-04
  3.534544700E+03 -4.909200013E-04
  9.873651600E+02 -1.946160005E-03
  3.159787500E+02 -7.005300019E-03
  1.116542800E+02 -2.167814006E-02
  4.269945100E+01 -5.641213015E-02
  1.739559600E+01 -1.127053003E-01
  7.438309000E+00 -1.589119704E-01
  3.222862000E+00 -3.355083009E-02
  1.253877000E+00  3.531902810E-01
  4.951550000E-01  5.534199315E-01
  1.916650000E-01  2.301839106E-01
  6.708300000E-02  1.127267003E-02
   p   9
  2.000000000E+02  9.173000030E-04
  4.653336700E+01  7.377140024E-03
  1.462180900E+01  3.483515011E-02
  5.313064000E+00  1.144397004E-01
  2.102525000E+00  2.554966408E-01
  8.502230000E-01  3.722557412E-01
  3.375970000E-01  3.323314911E-01
  1.288920000E-01  1.400847905E-01
  4.511200000E-02  2.395784008E-02
 
[MO]
Sym=     1a  
Ene=   -26.7960
Spin= Alpha
Occup=    1.00000
   1         1.00054463
   2         0.00149519
   3         0.00000000
   4         0.00000000
   5         0.00551287
   6        -0.00076892
   7        -0.00446291
   8         0.00000000
   9        -0.00000000
  10         0.00183454
Sym=     1a  
Ene=   -26.7730
Spin= Beta
Occup=    1.00000
   1         1.00042934
   2         0.00013048
   3         0.00000000
   4        -0.00000000
   5         0.00521784
   6        -0.00052118
   7        -0.00369386
   8         0.00000000
   9         0.00000000
  10         0.00136364
Sym=     2a  
Ene=   -20.9790
Spin= Alpha
Occup=    1.00000
   1        -0.00241906
   2        -0.00534741
   3        -0.00000000
   4        -0.00000000
   5        -0.00091335
   6         1.00051638
   7         0.00539815
   8        -0.00000000
   9        -0.00000000
  10        -0.00746411
Sym=     2a  
Ene=   -20.9450
Spin= Beta
Occup=    1.00000
   1        -0.00227524
   2        -0.00404111
   3        -0.00000000
   4        -0.00000000
   5        -0.00031289
   6         1.00033988
   7         0.00298425
   8         0.00000000
   9        -0.00000000
  10        -0.00688056
Sym=     3a  
Ene=    -2.5747
Spin= Alpha
Occup=    1.00000
   1        -0.05086853
   2         0.57061442
   3         0.00000000
   4        -0.00000000
   5         0.35420403
   6        -0.09366166
   7         0.26166999
   8         0.00000000
   9         0.00000000
  10        -0.26391654
Sym=     3a  
Ene=    -2.5299
Spin= Beta
Occup=    1.00000
   1        -0.05032782
   2         0.57069738
   3         0.00000000
   4        -0.00000000
   5         0.36636977
   6        -0.09461955
   7         0.24551007
   8         0.00000000
   9         0.00000000
  10        -0.27277708
Sym=     4a  
Ene=    -1.2884
Spin= Alpha
Occup=    1.00000
   1        -0.04276760
   2        -0.77650793
   3         0.00000000
   4        -0.00000000
   5         0.57308214
   6        -0.01656576
   7         0.47216734
   8         0.00000000
   9        -0.00000000
  10        -0.04069943
Sym=     4a  
Ene=    -1.2173
Spin= Beta
Occup=    1.00000
   1        -0.03985227
   2        -0.75331509
   3         0.00000000
   4        -0.00000000
   5         0.64107711
   6        -0.02667515
   7         0.36247301
   8         0.00000000
   9        -0.00000000
  10        -0.07748689
Sym=     5a  
Ene=    -1.2799
Spin= Alpha
Occup=    1.00000
   1         0.00000000
   2         0.00000000
   3         0.69842452
   4        -0.22258617
   5        -0.00000000
   6         0.00000000
   7        -0.00000000
   8         0.41859909
   9        -0.13340649
  10         0.00000000
Sym=     5a  
Ene=    -1.2156
Spin= Beta
Occup=    1.00000
   1        -0.00000000
   2        -0.00000000
   3         0.22695300
   4         0.71212666
   5         0.00000000
   6         0.00000000
   7         0.00000000
   8         0.12797711
   9         0.40156292
  10         0.00000000
Sym=     6a  
Ene=    -1.2342
Spin= Alpha
Occup=    1.00000
   1         0.00000000
   2         0.00000000
   3         0.22544549
   4         0.70739643
   5        -0.00000000
   6         0.00000000
   7         0.00000000
   8         0.12986590
   9         0.40748950
  10         0.00000000
Sym=     6a  
Ene=    -1.1009
Spin= Beta
Occup=    1.00000
   1         0.00000000
   2         0.00000000
   3         0.72302337
   4        -0.23042576
   5        -0.00000000
   6         0.00000000
   7        -0.00000000
   8         0.38772272
   9        -0.12356627
  10         0.00000000
Sym=     7a  
Ene=    -0.9557
Spin= Alpha
Occup=    1.00000
   1         0.01679944
   2         0.06487362
   3        -0.00000000
   4        -0.00000000
   5        -0.52176158
   6         0.06547005
   7         0.80127418
   8        -0.00000000
   9        -0.00000000
  10         0.61667151
Sym=     7a  
Ene=    -0.8868
Spin= Beta
Occup=    1.00000
   1         0.01528952
   2         0.01905476
   3        -0.00000000
   4        -0.00000000
   5        -0.43970267
   6         0.05915275
   7         0.82801823
   8        -0.00000000
   9        -0.00000000
  10         0.62351551
Sym=     8a  
Ene=    -0.5140
Spin= Alpha
Occup=    1.00000
   1        -0.00000000
   2        -0.00000000
   3        -0.78287011
   4         0.24949876
   5        -0.00000000
   6         0.00000000
   7         0.00000000
   8         0.96200687
   9        -0.30658921
  10        -0.00000000
Sym=     8a  
Ene=    -0.4214
Spin= Beta
Occup=    1.00000
   1        -0.00000000
   2        -0.00000000
   3        -0.24553323
   4        -0.77042717
   5        -0.00000000
   6         0.00000000
   7         0.00000000
   8         0.30889496
   9         0.96924178
  10         0.00000000
Sym=     9a  
Ene=    -0.4537
Spin= Alpha
Occup=    1.00000
   1        -0.00000000
   2        -0.00000000
   3        -0.24691813
   4        -0.77477268
   5        -0.00000000
   6         0.00000000
   7         0.00000000
   8         0.30810564
   9         0.96676508
  10         0.00000000
Sym=     9a  
Ene=     0.2459
Spin= Beta
Occup=    0.00000
   1        -0.00000000
   2        -0.00000000
   3        -0.76021024
   4         0.24227712
   5        -0.00000000
   6         0.00000000
   7         0.00000000
   8         0.97486076
   9        -0.31068571
  10        -0.00000000
Sym=    10a  
Ene=     1.5215
Spin= Alpha
Occup=    0.00000
   1         0.26428020
   2         1.53009023
   3        -0.00000000
   4        -0.00000000
   5         1.10892345
   6        -0.25932423
   7        -1.45262486
   8         0.00000000
   9         0.00000000
  10         1.31475921
Sym=    10a  
Ene=     1.5807
Spin= Beta
Occup=    0.00000
   1         0.26536659
   2         1.54286174
   3        -0.00000000
   4        -0.00000000
   5         1.10330812
   6        -0.26033118
   7        -1.47184337
   8         0.00000000
   9         0.00000000
  10         1.30805605
