[Molden Format]
[N_Atoms]
                     2
[Atoms] (AU)
C1          1      6           0.00000000      0.00000000      0.00000000
O2          2      8           0.00000000      0.00000000      3.96842486
[Charge] (Mulliken)
  0.000000000000000E+000
  0.000000000000000E+000
[GTO] (AU)
   1
   s  14
  5.055750100E+04  1.128874000E-04
  7.524785600E+03  5.295373000E-04
  1.694327600E+03  2.450038300E-03
  4.728227900E+02  1.005398470E-02
  1.517107500E+02  3.545398060E-02
  5.391874600E+01  1.044071086E-01
  2.065931100E+01  2.412894918E-01
  8.383976000E+00  3.834225483E-01
  3.577015000E+00  3.078514393E-01
  1.547118000E+00  6.872442990E-02
  6.130130000E-01  2.224445000E-04
  2.460680000E-01  1.976748900E-03
  9.908700000E-02  2.057859400E-03
  3.468000000E-02  4.182020000E-04
   s  14
  5.055750100E+04 -2.507420000E-05
  7.524785600E+03 -1.175945000E-04
  1.694327600E+03 -5.456275000E-04
  4.728227900E+02 -2.245077100E-03
  1.517107500E+02 -8.043471800E-03
  5.391874600E+01 -2.442588710E-02
  2.065931100E+01 -6.136791180E-02
  8.383976000E+00 -1.177767835E-01
  3.577015000E+00 -1.550487783E-01
  1.547118000E+00 -1.933316860E-02
  6.130130000E-01  3.996930678E-01
  2.460680000E-01  5.589420949E-01
  9.908700000E-02  1.711195023E-01
  3.468000000E-02  7.456244600E-03
   p   9
  8.333315500E+01  1.344656000E-03
  1.955761100E+01  1.023555500E-02
  6.080365000E+00  4.520067100E-02
  2.179317000E+00  1.410756198E-01
  8.651500000E-01  3.047388085E-01
  3.619440000E-01  3.995281011E-01
  1.547400000E-01  2.719163432E-01
  6.542900000E-02  5.857669330E-02
  2.290000000E-02 -1.263813000E-04
 
   2
   s  14
  1.053749500E+05  1.238600013E-04
  1.567924000E+04  5.120100053E-04
  3.534544700E+03  2.152910022E-03
  9.873651600E+02  8.528440089E-03
  3.159787500E+02  3.018049031E-02
  1.116542800E+02  9.099702095E-02
  4.269945100E+01  2.177936423E-01
  1.739559600E+01  3.686245738E-01
  7.438309000E+00  3.366707335E-01
  3.222862000E+00  9.657630101E-02
  1.253877000E+00  2.144520022E-03
  4.951550000E-01  1.194350012E-03
  1.916650000E-01  5.390200056E-04
  6.708300000E-02  2.103400022E-04
   s  14
  1.053749500E+05 -2.815000008E-05
  1.567924000E+04 -1.163000003E-04
  3.534544700E+03 -4.909200013E-04
  9.873651600E+02 -1.946160005E-03
  3.159787500E+02 -7.005300019E-03
  1.116542800E+02 -2.167814006E-02
  4.269945100E+01 -5.641213015E-02
  1.739559600E+01 -1.127053003E-01
  7.438309000E+00 -1.589119704E-01
  3.222862000E+00 -3.355083009E-02
  1.253877000E+00  3.531902810E-01
  4.951550000E-01  5.534199315E-01
  1.916650000E-01  2.301839106E-01
  6.708300000E-02  1.127267003E-02
   p   9
  2.000000000E+02  9.173000030E-04
  4.653336700E+01  7.377140024E-03
  1.462180900E+01  3.483515011E-02
  5.313064000E+00  1.144397004E-01
  2.102525000E+00  2.554966408E-01
  8.502230000E-01  3.722557412E-01
  3.375970000E-01  3.323314911E-01
  1.288920000E-01  1.400847905E-01
  4.511200000E-02  2.395784008E-02
 
[MO]
Sym=     1a  
Ene=   -20.6840
Spin= Alpha
Occup=    2.00000
   1         0.00008684
   2         0.00020521
   3         0.00000000
   4         0.00000000
   5         0.00029927
   6         0.99999457
   7         0.00000447
   8        -0.00000000
   9        -0.00000000
  10        -0.00000275
Sym=     2a  
Ene=   -11.3280
Spin= Alpha
Occup=    2.00000
   1         0.99998528
   2         0.00001224
   3        -0.00000000
   4        -0.00000000
   5         0.00000922
   6        -0.00015888
   7         0.00050542
   8        -0.00000000
   9         0.00000000
  10        -0.00085088
Sym=     3a  
Ene=    -1.2808
Spin= Alpha
Occup=    2.00000
   1        -0.00496989
   2         0.12111542
   3         0.00000000
   4         0.00000000
   5         0.08464528
   6        -0.00200575
   7         0.96191495
   8        -0.00000000
   9        -0.00000000
  10        -0.03373025
Sym=     4a  
Ene=    -0.7765
Spin= Alpha
Occup=    2.00000
   1         0.00792304
   2        -0.70634195
   3         0.00000000
   4        -0.00000000
   5        -0.08378446
   6         0.00547627
   7         0.21821583
   8         0.00000000
   9         0.00000000
  10         0.57855207
Sym=     5a  
Ene=    -0.6435
Spin= Alpha
Occup=    2.00000
   1         0.00000000
   2         0.00000000
   3         0.13808453
   4         0.06171333
   5        -0.00000000
   6         0.00000000
   7         0.00000000
   8         0.89231205
   9         0.39879596
  10         0.00000000
Sym=     6a  
Ene=    -0.6435
Spin= Alpha
Occup=    2.00000
   1        -0.00000000
   2         0.00000000
   3        -0.06171333
   4         0.13808453
   5        -0.00000000
   6        -0.00000000
   7         0.00000000
   8        -0.39879596
   9         0.89231205
  10         0.00000000
Sym=     7a  
Ene=    -0.5907
Spin= Alpha
Occup=    2.00000
   1         0.01045500
   2         0.68823178
   3         0.00000000
   4        -0.00000000
   5        -0.34737017
   6         0.00085794
   7        -0.01838255
   8        -0.00000000
   9        -0.00000000
  10         0.68794874
Sym=     8a  
Ene=    -0.4281
Spin= Alpha
Occup=    0.00000
   1        -0.00000000
   2        -0.00000000
   3         0.89220769
   4         0.43195961
   5         0.00000000
   6        -0.00000000
   7         0.00000000
   8        -0.20174346
   9        -0.09767347
  10        -0.00000000
Sym=     9a  
Ene=    -0.4281
Spin= Alpha
Occup=    0.00000
   1        -0.00000000
   2        -0.00000000
   3        -0.43195961
   4         0.89220769
   5        -0.00000000
   6        -0.00000000
   7         0.00000000
   8         0.09767347
   9        -0.20174346
  10         0.00000000
Sym=    10a  
Ene=    -0.3761
Spin= Alpha
Occup=    0.00000
   1         0.00853566
   2         0.22654222
   3        -0.00000000
   4         0.00000000
   5         0.96397768
   6        -0.01500536
   7        -0.25888943
   8        -0.00000000
   9         0.00000000
  10         0.50326169
