[Molden Format]
[N_Atoms]
                     2
[Atoms] (AU)
LI1         1      3           0.00000000      0.00000000      0.00000000
O2          2      8           0.00000000      0.00000000      4.91328792
[Charge] (Mulliken)
  8.995453307493850E-002
 -8.995453307498558E-002
[GTO] (AU)
   1
   s  14
  9.497934400E+03  9.668999974E-05
  1.416811200E+03  6.087099984E-04
  3.214599400E+02  3.101519992E-03
  9.112416300E+01  1.266904997E-02
  2.999989100E+01  4.248012989E-02
  1.101763100E+01  1.150183297E-01
  4.372801000E+00  2.398650094E-01
  1.831256000E+00  3.584300090E-01
  8.022610000E-01  3.048527792E-01
  3.626480000E-01  8.824261976E-02
  1.139950000E-01 -8.445899977E-04
  5.123700000E-02 -7.943959979E-03
  2.246800000E-02 -3.764419990E-03
  7.860000000E-03 -8.868999976E-05
   s  14
  9.497934400E+03 -1.244999993E-05
  1.416811200E+03 -7.838999954E-05
  3.214599400E+02 -4.007099976E-04
  9.112416300E+01 -1.645249990E-03
  2.999989100E+01 -5.634599967E-03
  1.101763100E+01 -1.590780991E-02
  4.372801000E+00 -3.612581979E-02
  1.831256000E+00 -6.459927962E-02
  8.022610000E-01 -1.008321794E-01
  3.626480000E-01 -9.757613942E-02
  1.139950000E-01  2.301215886E-01
  5.123700000E-02  6.102389764E-01
  2.246800000E-02  2.849406083E-01
  7.860000000E-03  4.026899976E-03
   p   9
  1.311950400E+01  1.524940000E-03
  3.077424200E+00  8.314830000E-03
  1.098800500E+00  1.933203000E-02
  4.357784000E-01  4.934293000E-02
  1.802432000E-01  1.623554000E-01
  7.613330000E-02  3.847505400E-01
  3.254650000E-02  4.336100400E-01
  1.401820000E-02  1.287005900E-01
  4.906400000E-03 -1.018520000E-03
 
   2
   s  14
  1.053749500E+05  1.238600013E-04
  1.567924000E+04  5.120100053E-04
  3.534544700E+03  2.152910022E-03
  9.873651600E+02  8.528440089E-03
  3.159787500E+02  3.018049031E-02
  1.116542800E+02  9.099702095E-02
  4.269945100E+01  2.177936423E-01
  1.739559600E+01  3.686245738E-01
  7.438309000E+00  3.366707335E-01
  3.222862000E+00  9.657630101E-02
  1.253877000E+00  2.144520022E-03
  4.951550000E-01  1.194350012E-03
  1.916650000E-01  5.390200056E-04
  6.708300000E-02  2.103400022E-04
   s  14
  1.053749500E+05 -2.815000008E-05
  1.567924000E+04 -1.163000003E-04
  3.534544700E+03 -4.909200013E-04
  9.873651600E+02 -1.946160005E-03
  3.159787500E+02 -7.005300019E-03
  1.116542800E+02 -2.167814006E-02
  4.269945100E+01 -5.641213015E-02
  1.739559600E+01 -1.127053003E-01
  7.438309000E+00 -1.589119704E-01
  3.222862000E+00 -3.355083009E-02
  1.253877000E+00  3.531902810E-01
  4.951550000E-01  5.534199315E-01
  1.916650000E-01  2.301839106E-01
  6.708300000E-02  1.127267003E-02
   p   9
  2.000000000E+02  9.173000030E-04
  4.653336700E+01  7.377140024E-03
  1.462180900E+01  3.483515011E-02
  5.313064000E+00  1.144397004E-01
  2.102525000E+00  2.554966408E-01
  8.502230000E-01  3.722557412E-01
  3.375970000E-01  3.323314911E-01
  1.288920000E-01  1.400847905E-01
  4.511200000E-02  2.395784008E-02
 
[MO]
Sym=     1a  
Ene=   -20.7060
Spin= Alpha
Occup=    1.00000
   1        -0.00002688
   2        -0.00039742
   3        -0.00000000
   4         0.00000000
   5        -0.00055339
   6         1.00002105
   7         0.00187894
   8         0.00000000
   9         0.00000000
  10        -0.00022809
Sym=     1a  
Ene=   -20.6390
Spin= Beta
Occup=    1.00000
   1        -0.00001458
   2        -0.00004927
   3        -0.00000000
   4         0.00000000
   5        -0.00004898
   6         1.00000028
   7        -0.00195019
   8        -0.00000000
   9         0.00000000
  10        -0.00010515
Sym=     2a  
Ene=    -2.4810
Spin= Alpha
Occup=    1.00000
   1         0.99990171
   2         0.01297873
   3        -0.00000000
   4        -0.00000000
   5         0.00012104
   6        -0.00002303
   7         0.00059020
   8         0.00000000
   9         0.00000000
  10        -0.00057895
Sym=     2a  
Ene=    -2.4938
Spin= Beta
Occup=    1.00000
   1         0.99992569
   2         0.01185161
   3         0.00000000
   4        -0.00000000
   5         0.00001982
   6         0.00000139
   7         0.00049518
   8         0.00000000
   9         0.00000000
  10        -0.00010263
Sym=     3a  
Ene=    -1.3967
Spin= Alpha
Occup=    1.00000
   1         0.00516660
   2         0.00873591
   3         0.00000000
   4        -0.00000000
   5         0.01053438
   6         0.00121143
   7        -1.00426693
   8        -0.00000000
   9         0.00000000
  10         0.02268522
Sym=     3a  
Ene=    -1.0968
Spin= Beta
Occup=    1.00000
   1         0.00469502
   2        -0.01350473
   3        -0.00000000
   4         0.00000000
   5        -0.01088115
   6        -0.00143515
   7        -0.99435352
   8        -0.00000000
   9        -0.00000000
  10         0.00344129
Sym=     4a  
Ene=    -0.6842
Spin= Alpha
Occup=    1.00000
   1         0.00000000
   2         0.00000000
   3         0.00071059
   4        -0.01424612
   5        -0.00000000
   6        -0.00000000
   7         0.00000000
   8        -0.04989159
   9         1.00024686
  10         0.00000000
Sym=     4a  
Ene=    -0.5273
Spin= Beta
Occup=    1.00000
   1        -0.00000000
   2        -0.00000000
   3         0.01466912
   4         0.00073169
   5         0.00000000
   6         0.00000000
   7        -0.00000000
   8         0.99701592
   9         0.04973043
  10        -0.00000000
Sym=     5a  
Ene=    -0.6835
Spin= Alpha
Occup=    1.00000
   1         0.01973107
   2         0.01235537
   3        -0.00000000
   4         0.00000000
   5        -0.00346751
   6        -0.00001308
   7         0.01921989
   8         0.00000000
   9        -0.00000000
  10         1.00103680
Sym=     5a  
Ene=    -0.1985
Spin= Beta
Occup=    1.00000
   1         0.01533351
   2        -0.95159151
   3         0.00000000
   4        -0.00000000
   5         0.04241021
   6         0.01419857
   7         0.16784060
   8        -0.00000000
   9        -0.00000000
  10         0.24421208
Sym=     6a  
Ene=    -0.6046
Spin= Alpha
Occup=    1.00000
   1        -0.00000000
   2         0.00000000
   3        -0.00525487
   4        -0.00026211
   5         0.00000000
   6        -0.00000000
   7        -0.00000000
   8         0.99933076
   9         0.04984589
  10         0.00000000
Sym=     6a  
Ene=     0.0312
Spin= Beta
Occup=    0.00000
   1         0.00000000
   2         0.00000000
   3        -0.04735775
   4         0.94944739
   5        -0.00000000
   6         0.00000000
   7         0.00000000
   8        -0.01105557
   9         0.22164647
  10         0.00000000
Sym=     7a  
Ene=     0.0416
Spin= Alpha
Occup=    0.00000
   1        -0.01066575
   2         0.98155928
   3         0.00000000
   4         0.00000000
   5        -0.23763180
   6        -0.00873955
   7        -0.09835794
   8        -0.00000000
   9        -0.00000000
  10         0.08464060
Sym=     7a  
Ene=     0.0325
Spin= Beta
Occup=    0.00000
   1        -0.00725486
   2        -0.13978991
   3        -0.00000000
   4         0.00000000
   5         0.83138860
   6        -0.02209725
   7        -0.22403759
   8        -0.00000000
   9         0.00000000
  10        -0.50626104
Sym=     8a  
Ene=     0.0838
Spin= Alpha
Occup=    0.00000
   1         0.00000000
   2        -0.00000000
   3        -0.05012506
   4         1.00492757
   5         0.00000000
   6        -0.00000000
   7        -0.00000000
   8         0.00488425
   9        -0.09792138
  10        -0.00000000
Sym=     8a  
Ene=     0.0442
Spin= Beta
Occup=    0.00000
   1        -0.00000000
   2         0.00000000
   3         1.00492149
   4         0.05012476
   5        -0.00000000
   6         0.00000000
   7         0.00000000
   8        -0.12665555
   9        -0.00631749
  10         0.00000000
Sym=     9a  
Ene=     0.0859
Spin= Alpha
Occup=    0.00000
   1         0.00000000
   2        -0.00000000
   3         1.00501481
   4         0.05012941
   5         0.00000000
   6        -0.00000000
   7        -0.00000000
   8        -0.10686627
   9        -0.00533041
  10         0.00000000
Sym=     9a  
Ene=     0.1653
Spin= Beta
Occup=    0.00000
   1        -0.00000000
   2        -0.00000000
   3         0.01643990
   4        -0.32959372
   5        -0.00000000
   6         0.00000000
   7         0.00000000
   8        -0.04889582
   9         0.98028323
  10        -0.00000000
Sym=    10a  
Ene=     0.1173
Spin= Alpha
Occup=    0.00000
   1        -0.00043601
   2        -0.30135615
   3         0.00000000
   4         0.00000000
   5        -1.02776061
   6         0.03436942
   7         0.33673275
   8         0.00000000
   9        -0.00000000
  10        -0.15762504
Sym=    10a  
Ene=     0.1761
Spin= Beta
Occup=    0.00000
   1        -0.01312303
   2        -0.35955703
   3        -0.00000000
   4         0.00000000
   5        -0.64788889
   6         0.02467203
   7         0.25472005
   8        -0.00000000
   9        -0.00000000
  10        -0.84773092
