[Molden Format]
[N_Atoms]
                     2
[Atoms] (AU)
N1          1      7           0.00000000      0.00000000      0.00000000
O2          2      8           0.00000000      0.00000000      4.53534270
[Charge] (Mulliken)
  7.760399603106904E-002
 -7.760399603112234E-002
[GTO] (AU)
   1
   s  14
  7.476171500E+04  1.182599996E-04
  1.112365400E+04  5.172899983E-04
  2.512685700E+03  2.266659992E-03
  7.037772900E+02  9.145289970E-03
  2.254787900E+02  3.239342989E-02
  7.961581000E+01  9.770792967E-02
  3.023728300E+01  2.317036792E-01
  1.226362200E+01  3.768898887E-01
  5.265086000E+00  3.177420689E-01
  2.333471000E+00  8.211308973E-02
  9.018560000E-01  3.312089989E-03
  3.583360000E-01  3.720819988E-03
  1.410930000E-01  3.165419989E-03
  4.938300000E-02  4.595799985E-04
   s  14
  7.476171500E+04 -2.707000010E-05
  1.112365400E+04 -1.183700004E-04
  2.512685700E+03 -5.203800020E-04
  7.037772900E+02 -2.102930008E-03
  2.254787900E+02 -7.568200028E-03
  7.961581000E+01 -2.346767009E-02
  3.023728300E+01 -6.042901023E-02
  1.226362200E+01 -1.170549104E-01
  5.265086000E+00 -1.555321506E-01
  2.333471000E+00 -2.468935009E-02
  9.018560000E-01  3.625054514E-01
  3.583360000E-01  5.550845021E-01
  1.410930000E-01  2.148376908E-01
  4.938300000E-02  8.983850034E-03
   p   9
  1.266665700E+02  1.233630000E-03
  2.983738900E+01  9.493409996E-03
  9.394038000E+00  4.293961998E-02
  3.405104000E+00  1.362925399E-01
  1.350000000E+00  2.921362499E-01
  5.576960000E-01  3.887887598E-01
  2.324490000E-01  2.946801399E-01
  9.426400000E-02  8.012875997E-02
  3.299200000E-02  5.405199998E-04
 
   2
   s  14
  1.053749500E+05  1.238600013E-04
  1.567924000E+04  5.120100053E-04
  3.534544700E+03  2.152910022E-03
  9.873651600E+02  8.528440089E-03
  3.159787500E+02  3.018049031E-02
  1.116542800E+02  9.099702095E-02
  4.269945100E+01  2.177936423E-01
  1.739559600E+01  3.686245738E-01
  7.438309000E+00  3.366707335E-01
  3.222862000E+00  9.657630101E-02
  1.253877000E+00  2.144520022E-03
  4.951550000E-01  1.194350012E-03
  1.916650000E-01  5.390200056E-04
  6.708300000E-02  2.103400022E-04
   s  14
  1.053749500E+05 -2.815000008E-05
  1.567924000E+04 -1.163000003E-04
  3.534544700E+03 -4.909200013E-04
  9.873651600E+02 -1.946160005E-03
  3.159787500E+02 -7.005300019E-03
  1.116542800E+02 -2.167814006E-02
  4.269945100E+01 -5.641213015E-02
  1.739559600E+01 -1.127053003E-01
  7.438309000E+00 -1.589119704E-01
  3.222862000E+00 -3.355083009E-02
  1.253877000E+00  3.531902810E-01
  4.951550000E-01  5.534199315E-01
  1.916650000E-01  2.301839106E-01
  6.708300000E-02  1.127267003E-02
   p   9
  2.000000000E+02  9.173000030E-04
  4.653336700E+01  7.377140024E-03
  1.462180900E+01  3.483515011E-02
  5.313064000E+00  1.144397004E-01
  2.102525000E+00  2.554966408E-01
  8.502230000E-01  3.722557412E-01
  3.375970000E-01  3.323314911E-01
  1.288920000E-01  1.400847905E-01
  4.511200000E-02  2.395784008E-02
 
[MO]
Sym=     1a  
Ene=   -20.6580
Spin= Alpha
Occup=    1.00000
   1        -0.00000661
   2        -0.00009072
   3         0.00000000
   4         0.00000000
   5        -0.00009046
   6         1.00000057
   7        -0.00020864
   8         0.00000000
   9         0.00000000
  10        -0.00009696
Sym=     1a  
Ene=   -20.6580
Spin= Beta
Occup=    1.00000
   1        -0.00000500
   2        -0.00008526
   3         0.00000000
   4         0.00000000
   5        -0.00008298
   6         1.00000053
   7        -0.00018485
   8         0.00000000
   9        -0.00000000
  10        -0.00009003
Sym=     2a  
Ene=   -15.6460
Spin= Alpha
Occup=    1.00000
   1         0.99999123
   2        -0.00469981
   3        -0.00000000
   4        -0.00000000
   5         0.00017460
   6        -0.00002429
   7        -0.00029174
   8         0.00000000
   9        -0.00000000
  10         0.00030219
Sym=     2a  
Ene=   -15.6140
Spin= Beta
Occup=    1.00000
   1         0.99997698
   2        -0.00697613
   3        -0.00000000
   4        -0.00000000
   5         0.00014629
   6        -0.00002182
   7        -0.00021137
   8         0.00000000
   9        -0.00000000
  10         0.00017132
Sym=     3a  
Ene=    -1.2249
Spin= Alpha
Occup=    1.00000
   1        -0.00079878
   2         0.07592457
   3         0.00000000
   4        -0.00000000
   5         0.02256140
   6        -0.00001979
   7         0.99210424
   8         0.00000000
   9         0.00000000
  10        -0.00007546
Sym=     3a  
Ene=    -1.2267
Spin= Beta
Occup=    1.00000
   1        -0.00083371
   2         0.04128354
   3         0.00000000
   4         0.00000000
   5         0.02202570
   6         0.00001809
   7         0.99560948
   8        -0.00000000
   9        -0.00000000
  10         0.00411675
Sym=     4a  
Ene=    -1.0345
Spin= Alpha
Occup=    1.00000
   1         0.00474484
   2         0.99612501
   3         0.00000000
   4         0.00000000
   5         0.00881124
   6        -0.00177003
   7        -0.11719183
   8         0.00000000
   9         0.00000000
  10        -0.01802080
Sym=     4a  
Ene=    -0.8926
Spin= Beta
Occup=    1.00000
   1         0.00686288
   2         0.99637702
   3         0.00000000
   4         0.00000000
   5         0.00499722
   6        -0.00174948
   7        -0.08172442
   8        -0.00000000
   9        -0.00000000
  10        -0.03380204
Sym=     5a  
Ene=    -0.5645
Spin= Alpha
Occup=    1.00000
   1        -0.00000000
   2        -0.00000000
   3         0.84192890
   4        -0.02122427
   5         0.00000000
   6        -0.00000000
   7        -0.00000000
   8         0.51189632
   9        -0.01290445
  10        -0.00000000
Sym=     5a  
Ene=    -0.5469
Spin= Beta
Occup=    1.00000
   1         0.00000000
   2         0.00000000
   3         0.00041139
   4         0.01631905
   5        -0.00000000
   6         0.00000000
   7         0.00000000
   8         0.02518415
   9         0.99901009
  10         0.00000000
Sym=     6a  
Ene=    -0.5463
Spin= Alpha
Occup=    1.00000
   1        -0.00000000
   2        -0.00000000
   3         0.00046977
   4         0.01863495
   5         0.00000000
   6        -0.00000000
   7        -0.00000000
   8         0.02518120
   9         0.99889311
  10        -0.00000000
Sym=     6a  
Ene=    -0.5463
Spin= Beta
Occup=    1.00000
   1         0.00000000
   2         0.00000000
   3         0.01269483
   4        -0.00032003
   5        -0.00000000
   6         0.00000000
   7         0.00000000
   8         0.99918239
   9        -0.02518849
  10         0.00000000
Sym=     7a  
Ene=    -0.5392
Spin= Alpha
Occup=    1.00000
   1         0.00000000
   2         0.00000000
   3         0.54001209
   4        -0.01361322
   5        -0.00000000
   6         0.00000000
   7         0.00000000
   8        -0.85931338
   9         0.02166252
  10         0.00000000
Sym=     7a  
Ene=    -0.4406
Spin= Beta
Occup=    1.00000
   1        -0.00121955
   2        -0.02695370
   3        -0.00000000
   4         0.00000000
   5         0.97053245
   6        -0.00461704
   7        -0.09111128
   8         0.00000000
   9         0.00000000
  10        -0.16895322
Sym=     8a  
Ene=    -0.4838
Spin= Alpha
Occup=    1.00000
   1        -0.00090107
   2        -0.02286469
   3         0.00000000
   4        -0.00000000
   5         0.98104894
   6        -0.00466640
   7        -0.09340279
   8        -0.00000000
   9        -0.00000000
  10        -0.12726244
Sym=     8a  
Ene=     0.0607
Spin= Beta
Occup=    0.00000
   1         0.00689720
   2         0.12065214
   3         0.00000000
   4         0.00000000
   5         0.27293486
   6        -0.00144313
   7        -0.03414548
   8        -0.00000000
   9        -0.00000000
  10         0.99482389
Sym=     9a  
Ene=     0.0606
Spin= Alpha
Occup=    0.00000
   1        -0.00000000
   2        -0.00000000
   3         0.02521049
   4         1.00005503
   5        -0.00000000
   6         0.00000000
   7         0.00000000
   8        -0.00130257
   9        -0.05167078
  10        -0.00000000
Sym=     9a  
Ene=     0.0984
Spin= Beta
Occup=    0.00000
   1        -0.00000000
   2        -0.00000000
   3         0.02521151
   4         1.00009550
   5        -0.00000000
   6         0.00000000
   7         0.00000000
   8        -0.00124426
   9        -0.04935749
  10        -0.00000000
Sym=    10a  
Ene=     0.0661
Spin= Alpha
Occup=    0.00000
   1         0.00666252
   2         0.10596767
   3         0.00000000
   4         0.00000000
   5         0.23214885
   6        -0.00121348
   7        -0.02560114
   8         0.00000000
   9         0.00000000
  10         1.00142835
Sym=    10a  
Ene=     0.1721
Spin= Beta
Occup=    0.00000
   1        -0.00000000
   2        -0.00000000
   3         1.00014807
   4        -0.02521284
   5         0.00000000
   6        -0.00000000
   7        -0.00000000
   8        -0.04573698
   9         0.00115299
  10         0.00000000
