[Molden Format]
[N_Atoms]
                     2
[Atoms] (AU)
B1          1      5           0.00000000      0.00000000      0.00000000
C2          2      6           0.00000000      0.00000000      3.96842486
[Charge] (Mulliken)
  0.103707631679987     
 -0.103707631680027     
[GTO] (AU)
   1
   s  14
  3.336021700E+04  1.039699991E-04
  4.972095200E+03  5.254399956E-04
  1.125641700E+03  2.509059979E-03
  3.164913600E+02  1.031887991E-02
  1.020072600E+02  3.636632969E-02
  3.629587300E+01  1.064607991E-01
  1.397141000E+01  2.403999880E-01
  5.741156000E+00  3.748581168E-01
  2.494268000E+00  3.100066974E-01
  1.114202000E+00  7.922455933E-02
  4.215490000E-01 -4.947589958E-03
  1.696330000E-01 -7.737119935E-03
  6.853500000E-02 -1.501079987E-03
  2.398700000E-02 -1.333299989E-04
   s  14
  3.336021700E+04 -2.030000008E-05
  4.972095200E+03 -1.025700004E-04
  1.125641700E+03 -4.911300020E-04
  3.164913600E+02 -2.026570008E-03
  1.020072600E+02 -7.261010030E-03
  3.629587300E+01 -2.197722009E-02
  1.397141000E+01 -5.408428022E-02
  5.741156000E+00 -1.022402604E-01
  2.494268000E+00 -1.423595206E-01
  1.114202000E+00 -4.658690019E-02
  4.215490000E-01  3.799402916E-01
  1.696330000E-01  5.890463624E-01
  6.853500000E-02  1.749075107E-01
  2.398700000E-02 -1.142030005E-03
   p   9
  5.500000000E+01  1.229800005E-03
  1.336610100E+01  8.827380035E-03
  4.135394000E+00  3.843340015E-02
  1.481256000E+00  1.150031805E-01
  6.021360000E-01  2.733674011E-01
  2.556360000E-01  4.061972116E-01
  1.111510000E-01  3.014967912E-01
  4.764800000E-02  7.684809030E-02
  1.667700000E-02 -8.170000032E-06
 
   2
   s  14
  5.055750100E+04  1.128874000E-04
  7.524785600E+03  5.295373000E-04
  1.694327600E+03  2.450038300E-03
  4.728227900E+02  1.005398470E-02
  1.517107500E+02  3.545398060E-02
  5.391874600E+01  1.044071086E-01
  2.065931100E+01  2.412894918E-01
  8.383976000E+00  3.834225483E-01
  3.577015000E+00  3.078514393E-01
  1.547118000E+00  6.872442990E-02
  6.130130000E-01  2.224445000E-04
  2.460680000E-01  1.976748900E-03
  9.908700000E-02  2.057859400E-03
  3.468000000E-02  4.182020000E-04
   s  14
  5.055750100E+04 -2.507420000E-05
  7.524785600E+03 -1.175945000E-04
  1.694327600E+03 -5.456275000E-04
  4.728227900E+02 -2.245077100E-03
  1.517107500E+02 -8.043471800E-03
  5.391874600E+01 -2.442588710E-02
  2.065931100E+01 -6.136791180E-02
  8.383976000E+00 -1.177767835E-01
  3.577015000E+00 -1.550487783E-01
  1.547118000E+00 -1.933316860E-02
  6.130130000E-01  3.996930678E-01
  2.460680000E-01  5.589420949E-01
  9.908700000E-02  1.711195023E-01
  3.468000000E-02  7.456244600E-03
   p   9
  8.333315500E+01  1.344656000E-03
  1.955761100E+01  1.023555500E-02
  6.080365000E+00  4.520067100E-02
  2.179317000E+00  1.410756198E-01
  8.651500000E-01  3.047388085E-01
  3.619440000E-01  3.995281011E-01
  1.547400000E-01  2.719163432E-01
  6.542900000E-02  5.857669330E-02
  2.290000000E-02 -1.263813000E-04
 
[MO]
Sym=     1a  
Ene=   -11.2400
Spin= Alpha
Occup=    1.00000
   1        -0.00007384
   2        -0.00140911
   3        -0.00000000
   4         0.00000000
   5        -0.00056283
   6         1.00004063
   7        -0.00164534
   8        -0.00000000
   9         0.00000000
  10        -0.00045332
Sym=     1a  
Ene=   -11.2400
Spin= Beta
Occup=    1.00000
   1        -0.00007384
   2        -0.00140911
   3        -0.00000000
   4         0.00000000
   5        -0.00056283
   6         1.00004063
   7        -0.00164534
   8        -0.00000000
   9         0.00000000
  10        -0.00045332
Sym=     2a  
Ene=    -7.7118
Spin= Alpha
Occup=    1.00000
   1         0.99989470
   2         0.01520177
   3        -0.00000000
   4         0.00000000
   5         0.00029123
   6        -0.00008693
   7        -0.00086872
   8         0.00000000
   9        -0.00000000
  10        -0.00002265
Sym=     2a  
Ene=    -7.7118
Spin= Beta
Occup=    1.00000
   1         0.99989470
   2         0.01520177
   3        -0.00000000
   4         0.00000000
   5         0.00029123
   6        -0.00008693
   7        -0.00086872
   8         0.00000000
   9        -0.00000000
  10        -0.00002265
Sym=     3a  
Ene=    -0.7177
Spin= Alpha
Occup=    1.00000
   1        -0.01692661
   2         0.34530616
   3        -0.00000000
   4         0.00000000
   5         0.07996665
   6        -0.00623462
   7         0.83614964
   8        -0.00000000
   9         0.00000000
  10        -0.05175402
Sym=     3a  
Ene=    -0.7177
Spin= Beta
Occup=    1.00000
   1        -0.01692661
   2         0.34530616
   3        -0.00000000
   4         0.00000000
   5         0.07996665
   6        -0.00623462
   7         0.83614964
   8        -0.00000000
   9         0.00000000
  10        -0.05175402
Sym=     4a  
Ene=    -0.2515
Spin= Alpha
Occup=    1.00000
   1         0.00000000
   2        -0.00000000
   3         0.49463224
   4         0.36211842
   5         0.00000000
   6        -0.00000000
   7        -0.00000000
   8         0.57069798
   9         0.41780587
  10        -0.00000000
Sym=     4a  
Ene=    -0.2515
Spin= Beta
Occup=    1.00000
   1         0.00000000
   2        -0.00000000
   3         0.49463224
   4         0.36211842
   5         0.00000000
   6        -0.00000000
   7        -0.00000000
   8         0.57069798
   9         0.41780587
  10        -0.00000000
Sym=     5a  
Ene=    -0.0980
Spin= Alpha
Occup=    1.00000
   1        -0.00000000
   2        -0.00000000
   3        -0.07925085
   4         0.10825195
   5         0.00000000
   6        -0.00000000
   7        -0.00000000
   8        -0.57415561
   9         0.78426244
  10        -0.00000001
Sym=     5a  
Ene=    -0.0980
Spin= Beta
Occup=    0.00000
   1        -0.00000000
   2        -0.00000000
   3        -0.07925085
   4         0.10825195
   5         0.00000000
   6        -0.00000000
   7        -0.00000000
   8        -0.57415561
   9         0.78426244
  10        -0.00000001
Sym=     6a  
Ene=    -0.0100
Spin= Alpha
Occup=    1.00000
   1         0.01099165
   2        -0.91493262
   3        -0.00000000
   4         0.00000000
   5         0.06785726
   6         0.01247560
   7         0.51721283
   8        -0.00000000
   9         0.00000000
  10         0.11846199
Sym=     6a  
Ene=    -0.0100
Spin= Beta
Occup=    1.00000
   1         0.01099165
   2        -0.91493262
   3        -0.00000000
   4         0.00000000
   5         0.06785726
   6         0.01247560
   7         0.51721283
   8        -0.00000000
   9         0.00000000
  10         0.11846199
Sym=     7a  
Ene=     0.0222
Spin= Alpha
Occup=    0.00000
   1         0.01133088
   2         0.17446813
   3        -0.00000000
   4         0.00000000
   5        -0.71190550
   6         0.02288286
   7         0.26797658
   8        -0.00000000
   9         0.00000000
  10         0.57453395
Sym=     7a  
Ene=     0.0222
Spin= Beta
Occup=    0.00000
   1         0.01133088
   2         0.17446813
   3        -0.00000000
   4         0.00000000
   5        -0.71190550
   6         0.02288286
   7         0.26797658
   8        -0.00000000
   9         0.00000000
  10         0.57453395
Sym=     8a  
Ene=     0.0783
Spin= Alpha
Occup=    0.00000
   1        -0.00000000
   2        -0.00000000
   3        -0.64805480
   4        -0.47443851
   5         0.00000000
   6         0.00000000
   7         0.00000000
   8         0.58218544
   9         0.42621580
  10        -0.00000000
Sym=     8a  
Ene=     0.0783
Spin= Beta
Occup=    0.00000
   1        -0.00000000
   2        -0.00000000
   3        -0.64805480
   4        -0.47443851
   5         0.00000000
   6         0.00000000
   7         0.00000000
   8         0.58218544
   9         0.42621580
  10        -0.00000000
Sym=     9a  
Ene=     0.1043
Spin= Alpha
Occup=    0.00000
   1         0.00000000
   2         0.00000000
   3         0.59155807
   4        -0.80803316
   5        -0.00000000
   6         0.00000000
   7         0.00000000
   8        -0.16299381
   9         0.22263985
  10         0.00000000
Sym=     9a  
Ene=     0.1043
Spin= Beta
Occup=    0.00000
   1         0.00000000
   2         0.00000000
   3         0.59155807
   4        -0.80803316
   5        -0.00000000
   6         0.00000000
   7         0.00000000
   8        -0.16299381
   9         0.22263985
  10         0.00000000
Sym=    10a  
Ene=     0.3314
Spin= Alpha
Occup=    0.00000
   1        -0.02603864
   2        -0.40406982
   3        -0.00000000
   4         0.00000000
   5        -0.84054485
   6         0.03643754
   7         0.38924220
   8         0.00000000
   9        -0.00000000
  10        -0.91471446
Sym=    10a  
Ene=     0.3314
Spin= Beta
Occup=    0.00000
   1        -0.02603864
   2        -0.40406982
   3        -0.00000000
   4         0.00000000
   5        -0.84054485
   6         0.03643754
   7         0.38924220
   8         0.00000000
   9        -0.00000000
  10        -0.91471446
