[Molden Format]
[N_Atoms]
                     2
[Atoms] (AU)
B1          1      5           0.00000000      0.00000000      0.00000000
C2          2      6           0.00000000      0.00000000      3.96842486
[Charge] (Mulliken)
  0.140559243522736     
 -0.140559243522772     
[GTO] (AU)
   1
   s  14
  3.336021700E+04  1.039699991E-04
  4.972095200E+03  5.254399956E-04
  1.125641700E+03  2.509059979E-03
  3.164913600E+02  1.031887991E-02
  1.020072600E+02  3.636632969E-02
  3.629587300E+01  1.064607991E-01
  1.397141000E+01  2.403999880E-01
  5.741156000E+00  3.748581168E-01
  2.494268000E+00  3.100066974E-01
  1.114202000E+00  7.922455933E-02
  4.215490000E-01 -4.947589958E-03
  1.696330000E-01 -7.737119935E-03
  6.853500000E-02 -1.501079987E-03
  2.398700000E-02 -1.333299989E-04
   s  14
  3.336021700E+04 -2.030000008E-05
  4.972095200E+03 -1.025700004E-04
  1.125641700E+03 -4.911300020E-04
  3.164913600E+02 -2.026570008E-03
  1.020072600E+02 -7.261010030E-03
  3.629587300E+01 -2.197722009E-02
  1.397141000E+01 -5.408428022E-02
  5.741156000E+00 -1.022402604E-01
  2.494268000E+00 -1.423595206E-01
  1.114202000E+00 -4.658690019E-02
  4.215490000E-01  3.799402916E-01
  1.696330000E-01  5.890463624E-01
  6.853500000E-02  1.749075107E-01
  2.398700000E-02 -1.142030005E-03
   p   9
  5.500000000E+01  1.229800005E-03
  1.336610100E+01  8.827380035E-03
  4.135394000E+00  3.843340015E-02
  1.481256000E+00  1.150031805E-01
  6.021360000E-01  2.733674011E-01
  2.556360000E-01  4.061972116E-01
  1.111510000E-01  3.014967912E-01
  4.764800000E-02  7.684809030E-02
  1.667700000E-02 -8.170000032E-06
 
   2
   s  14
  5.055750100E+04  1.128874000E-04
  7.524785600E+03  5.295373000E-04
  1.694327600E+03  2.450038300E-03
  4.728227900E+02  1.005398470E-02
  1.517107500E+02  3.545398060E-02
  5.391874600E+01  1.044071086E-01
  2.065931100E+01  2.412894918E-01
  8.383976000E+00  3.834225483E-01
  3.577015000E+00  3.078514393E-01
  1.547118000E+00  6.872442990E-02
  6.130130000E-01  2.224445000E-04
  2.460680000E-01  1.976748900E-03
  9.908700000E-02  2.057859400E-03
  3.468000000E-02  4.182020000E-04
   s  14
  5.055750100E+04 -2.507420000E-05
  7.524785600E+03 -1.175945000E-04
  1.694327600E+03 -5.456275000E-04
  4.728227900E+02 -2.245077100E-03
  1.517107500E+02 -8.043471800E-03
  5.391874600E+01 -2.442588710E-02
  2.065931100E+01 -6.136791180E-02
  8.383976000E+00 -1.177767835E-01
  3.577015000E+00 -1.550487783E-01
  1.547118000E+00 -1.933316860E-02
  6.130130000E-01  3.996930678E-01
  2.460680000E-01  5.589420949E-01
  9.908700000E-02  1.711195023E-01
  3.468000000E-02  7.456244600E-03
   p   9
  8.333315500E+01  1.344656000E-03
  1.955761100E+01  1.023555500E-02
  6.080365000E+00  4.520067100E-02
  2.179317000E+00  1.410756198E-01
  8.651500000E-01  3.047388085E-01
  3.619440000E-01  3.995281011E-01
  1.547400000E-01  2.719163432E-01
  6.542900000E-02  5.857669330E-02
  2.290000000E-02 -1.263813000E-04
 
[MO]
Sym=     1a  
Ene=   -11.2100
Spin= Alpha
Occup=    2.00000
   1        -0.00009196
   2        -0.00083612
   3         0.00000001
   4        -0.00000003
   5        -0.00061397
   6         1.00003280
   7        -0.00192414
   8        -0.00000014
   9         0.00000064
  10        -0.00107111
Sym=     2a  
Ene=    -7.7141
Spin= Alpha
Occup=    2.00000
   1         0.99990675
   2         0.01392462
   3         0.00000009
   4        -0.00000006
   5         0.00084634
   6        -0.00009045
   7        -0.00024540
   8        -0.00000006
   9         0.00000024
  10         0.00003006
Sym=     3a  
Ene=    -0.7098
Spin= Alpha
Occup=    2.00000
   1        -0.01715085
   2         0.33903950
   3         0.00000263
   4        -0.00000136
   5         0.11293175
   6        -0.00745447
   7         0.82457100
   8         0.00000647
   9        -0.00000019
  10        -0.06338526
Sym=     4a  
Ene=    -0.4822
Spin= Alpha
Occup=    2.00000
   1         0.01038850
   2        -0.90430963
   3        -0.00000178
   4         0.00000164
   5         0.09775441
   6         0.01203195
   7         0.49968246
   8        -0.00002197
   9        -0.00000851
  10         0.14400315
Sym=     5a  
Ene=    -0.2790
Spin= Alpha
Occup=    2.00000
   1         0.00000193
   2         0.00005919
   3        -0.31306803
   4        -0.11067225
   5        -0.00008749
   6         0.00000235
   7         0.00002930
   8        -0.84570235
   9        -0.29896320
  10         0.00010127
Sym=     6a  
Ene=     0.2981
Spin= Alpha
Occup=    0.00000
   1        -0.02552654
   2        -0.42629609
   3         0.01661921
   4        -0.04686201
   5        -0.83617040
   6         0.03636497
   7         0.41187657
   8         0.02766674
   9        -0.07840434
  10        -0.90343035
Sym=     7a  
Ene=    -0.0001
Spin= Alpha
Occup=    1.00000
   1         0.01135759
   2         0.18356138
   3         0.00005452
   4         0.00002883
   5        -0.70382589
   6         0.02290501
   7         0.29819927
   8         0.00010741
   9         0.00007676
  10         0.57778966
Sym=     8a  
Ene=     0.0562
Spin= Alpha
Occup=    0.00000
   1         0.00228917
   2         0.03822461
   3         0.28612083
   4        -0.80944716
   5         0.07495216
   6        -0.00325953
   7        -0.03692285
   8         0.13230900
   9        -0.37423199
  10         0.08101875
Sym=     9a  
Ene=     0.0916
Spin= Alpha
Occup=    0.00000
   1        -0.00000132
   2        -0.00003036
   3        -0.89969719
   4        -0.31802948
   5        -0.00006013
   6         0.00000261
   7         0.00003254
   8         0.43845274
   9         0.15500145
  10        -0.00004798
Sym=    10a  
Ene=     0.1908
Spin= Alpha
Occup=    0.00000
   1        -0.00131227
   2        -0.02191165
   3         0.17677606
   4        -0.50006587
   5        -0.04294768
   6         0.00186746
   7         0.02115809
   8        -0.30843691
   9         0.87250012
  10        -0.04643951
