[Molden Format]
[N_Atoms]
                     2
[Atoms] (AU)
B1          1      5           0.00000000      0.00000000      0.00000000
C2          2      6           0.00000000      0.00000000      3.96842486
[Charge] (Mulliken)
  7.692950218452932E-002
 -7.692950218460393E-002
[GTO] (AU)
   1
   s  14
  3.336021700E+04  1.039699991E-04
  4.972095200E+03  5.254399956E-04
  1.125641700E+03  2.509059979E-03
  3.164913600E+02  1.031887991E-02
  1.020072600E+02  3.636632969E-02
  3.629587300E+01  1.064607991E-01
  1.397141000E+01  2.403999880E-01
  5.741156000E+00  3.748581168E-01
  2.494268000E+00  3.100066974E-01
  1.114202000E+00  7.922455933E-02
  4.215490000E-01 -4.947589958E-03
  1.696330000E-01 -7.737119935E-03
  6.853500000E-02 -1.501079987E-03
  2.398700000E-02 -1.333299989E-04
   s  14
  3.336021700E+04 -2.030000008E-05
  4.972095200E+03 -1.025700004E-04
  1.125641700E+03 -4.911300020E-04
  3.164913600E+02 -2.026570008E-03
  1.020072600E+02 -7.261010030E-03
  3.629587300E+01 -2.197722009E-02
  1.397141000E+01 -5.408428022E-02
  5.741156000E+00 -1.022402604E-01
  2.494268000E+00 -1.423595206E-01
  1.114202000E+00 -4.658690019E-02
  4.215490000E-01  3.799402916E-01
  1.696330000E-01  5.890463624E-01
  6.853500000E-02  1.749075107E-01
  2.398700000E-02 -1.142030005E-03
   p   9
  5.500000000E+01  1.229800005E-03
  1.336610100E+01  8.827380035E-03
  4.135394000E+00  3.843340015E-02
  1.481256000E+00  1.150031805E-01
  6.021360000E-01  2.733674011E-01
  2.556360000E-01  4.061972116E-01
  1.111510000E-01  3.014967912E-01
  4.764800000E-02  7.684809030E-02
  1.667700000E-02 -8.170000032E-06
 
   2
   s  14
  5.055750100E+04  1.128874000E-04
  7.524785600E+03  5.295373000E-04
  1.694327600E+03  2.450038300E-03
  4.728227900E+02  1.005398470E-02
  1.517107500E+02  3.545398060E-02
  5.391874600E+01  1.044071086E-01
  2.065931100E+01  2.412894918E-01
  8.383976000E+00  3.834225483E-01
  3.577015000E+00  3.078514393E-01
  1.547118000E+00  6.872442990E-02
  6.130130000E-01  2.224445000E-04
  2.460680000E-01  1.976748900E-03
  9.908700000E-02  2.057859400E-03
  3.468000000E-02  4.182020000E-04
   s  14
  5.055750100E+04 -2.507420000E-05
  7.524785600E+03 -1.175945000E-04
  1.694327600E+03 -5.456275000E-04
  4.728227900E+02 -2.245077100E-03
  1.517107500E+02 -8.043471800E-03
  5.391874600E+01 -2.442588710E-02
  2.065931100E+01 -6.136791180E-02
  8.383976000E+00 -1.177767835E-01
  3.577015000E+00 -1.550487783E-01
  1.547118000E+00 -1.933316860E-02
  6.130130000E-01  3.996930678E-01
  2.460680000E-01  5.589420949E-01
  9.908700000E-02  1.711195023E-01
  3.468000000E-02  7.456244600E-03
   p   9
  8.333315500E+01  1.344656000E-03
  1.955761100E+01  1.023555500E-02
  6.080365000E+00  4.520067100E-02
  2.179317000E+00  1.410756198E-01
  8.651500000E-01  3.047388085E-01
  3.619440000E-01  3.995281011E-01
  1.547400000E-01  2.719163432E-01
  6.542900000E-02  5.857669330E-02
  2.290000000E-02 -1.263813000E-04
 
[MO]
Sym=     1a  
Ene=   -11.2600
Spin= Alpha
Occup=    1.00000
   1        -0.00011560
   2        -0.00097695
   3        -0.00000000
   4        -0.00000000
   5        -0.00093902
   6         1.00004935
   7         0.00092214
   8         0.00000000
   9         0.00000000
  10        -0.00036753
Sym=     1a  
Ene=   -11.2030
Spin= Beta
Occup=    1.00000
   1        -0.00006641
   2        -0.00044596
   3        -0.00000000
   4        -0.00000000
   5        -0.00023339
   6         1.00000471
   7        -0.00452228
   8         0.00000000
   9         0.00000000
  10        -0.00047284
Sym=     2a  
Ene=    -7.6738
Spin= Alpha
Occup=    1.00000
   1         0.99991234
   2         0.01326426
   3         0.00000000
   4        -0.00000000
   5         0.00047187
   6        -0.00005610
   7        -0.00012625
   8         0.00000000
   9        -0.00000000
  10        -0.00003988
Sym=     2a  
Ene=    -7.7001
Spin= Beta
Occup=    1.00000
   1         0.99988427
   2         0.01581094
   3        -0.00000000
   4        -0.00000000
   5        -0.00023031
   6        -0.00006260
   7        -0.00020821
   8         0.00000000
   9         0.00000000
  10         0.00022119
Sym=     3a  
Ene=    -0.8325
Spin= Alpha
Occup=    1.00000
   1         0.01151711
   2        -0.13969484
   3        -0.00000000
   4         0.00000000
   5        -0.07733256
   6         0.00538988
   7        -0.93714056
   8        -0.00000000
   9        -0.00000000
  10        -0.07303808
Sym=     3a  
Ene=    -0.6319
Spin= Beta
Occup=    1.00000
   1         0.02208259
   2        -0.71187905
   3         0.00000000
   4        -0.00000000
   5         0.03452307
   6         0.00735108
   7        -0.52859944
   8         0.00000000
   9         0.00000000
  10         0.13849230
Sym=     4a  
Ene=    -0.4461
Spin= Alpha
Occup=    1.00000
   1        -0.01819563
   2         0.78461125
   3         0.00000000
   4        -0.00000000
   5         0.24439743
   6        -0.02102770
   7        -0.32897755
   8        -0.00000000
   9        -0.00000000
  10        -0.40106545
Sym=     4a  
Ene=    -0.4840
Spin= Beta
Occup=    1.00000
   1         0.00175223
   2         0.65129609
   3        -0.00000000
   4         0.00000000
   5        -0.35266688
   6        -0.00112859
   7        -0.70256431
   8         0.00000000
   9         0.00000000
  10         0.10467792
Sym=     5a  
Ene=    -0.4088
Spin= Alpha
Occup=    1.00000
   1        -0.00000000
   2         0.00000000
   3         0.09334612
   4        -0.01963436
   5         0.00000000
   6        -0.00000000
   7        -0.00000000
   8         0.96087297
   9        -0.20210940
  10        -0.00000000
Sym=     5a  
Ene=    -0.3281
Spin= Beta
Occup=    1.00000
   1         0.00000000
   2         0.00000000
   3         0.20298863
   4         0.96505302
   5         0.00000000
   6        -0.00000000
   7        -0.00000000
   8         0.01576950
   9         0.07497168
  10        -0.00000000
Sym=     6a  
Ene=    -0.4061
Spin= Alpha
Occup=    1.00000
   1         0.00000000
   2        -0.00000000
   3        -0.01551512
   4        -0.07376234
   5        -0.00000000
   6         0.00000000
   7         0.00000000
   8        -0.20304398
   9        -0.96531616
  10         0.00000000
Sym=     6a  
Ene=     0.0664
Spin= Beta
Occup=    0.00000
   1        -0.00000000
   2         0.00000000
   3         0.92417220
   4        -0.19438979
   5         0.00000000
   6        -0.00000000
   7        -0.00000000
   8         0.21573311
   9        -0.04537716
  10        -0.00000000
Sym=     7a  
Ene=     0.0417
Spin= Alpha
Occup=    0.00000
   1         0.00998984
   2         0.64061316
   3        -0.00000000
   4        -0.00000000
   5        -0.51177038
   6         0.00784819
   7        -0.03489787
   8        -0.00000000
   9         0.00000000
  10         0.60374812
Sym=     7a  
Ene=     0.0717
Spin= Beta
Occup=    0.00000
   1        -0.00858788
   2         0.12727154
   3        -0.00000000
   4         0.00000000
   5         0.71842636
   6        -0.02954845
   7        -0.56348142
   8        -0.00000000
   9         0.00000000
  10        -0.47323574
Sym=     8a  
Ene=     0.1335
Spin= Alpha
Occup=    0.00000
   1         0.00000000
   2         0.00000000
   3         0.98432330
   4        -0.20704193
   5         0.00000000
   6        -0.00000000
   7        -0.00000000
   8        -0.23308582
   9         0.04902712
  10         0.00000000
Sym=     8a  
Ene=     0.2582
Spin= Beta
Occup=    0.00000
   1        -0.00000000
   2        -0.00000000
   3        -0.04524914
   4        -0.21512445
   5        -0.00000000
   6         0.00000000
   7         0.00000000
   8         0.20737211
   9         0.98589305
  10        -0.00000000
Sym=     9a  
Ene=     0.1824
Spin= Alpha
Occup=    0.00000
   1        -0.00000000
   2         0.00000000
   3         0.20739130
   4         0.98598427
   5        -0.00000000
   6        -0.00000000
   7        -0.00000000
   8        -0.04500012
   9        -0.21394056
  10         0.00000000
Sym=     9a  
Ene=     0.2702
Spin= Beta
Occup=    0.00000
   1        -0.00000000
   2        -0.00000000
   3        -0.35144219
   4         0.07392212
   5        -0.00000000
   6         0.00000000
   7         0.00000000
   8         0.96491714
   9        -0.20296005
  10        -0.00000000
Sym=    10a  
Ene=     0.3195
Spin= Alpha
Occup=    0.00000
   1         0.02479748
   2         0.32340545
   3        -0.00000000
   4         0.00000000
   5         0.94694472
   6        -0.03867301
   7        -0.44978032
   8         0.00000000
   9        -0.00000000
  10         0.80796271
Sym=    10a  
Ene=     0.3650
Spin= Beta
Occup=    0.00000
   1        -0.02588676
   2        -0.45041764
   3         0.00000000
   4         0.00000000
   5        -0.76329708
   6         0.03448557
   7         0.31533149
   8        -0.00000000
   9        -0.00000000
  10        -0.96406110
