[Molden Format]
[N_Atoms]
                     2
[Atoms] (AU)
BE1         1      4           0.00000000      0.00000000      0.00000000
LI2         2      3           0.00000000      0.00000000      2.64561657
[Charge] (Mulliken)
 -0.223094370058714     
  0.223094370058710     
[GTO] (AU)
   1
   s  14
  2.262859900E+04  8.443999941E-05
  3.372318100E+03  4.601499968E-04
  7.603504000E+02  2.285389984E-03
  2.117404800E+02  9.648129932E-03
  6.722346800E+01  3.494469975E-02
  2.337217700E+01  1.061099893E-01
  8.721373000E+00  2.458240383E-01
  3.468091000E+00  3.862428773E-01
  1.452144000E+00  3.105526078E-01
  6.086150000E-01  6.415933955E-02
  2.576860000E-01 -2.265049984E-03
  1.041760000E-01 -5.217499963E-04
  4.242700000E-02 -8.757499938E-04
  1.484900000E-02  1.242199991E-04
   s  14
  2.262859900E+04 -1.586999994E-05
  3.372318100E+03 -8.656999968E-05
  7.603504000E+02 -4.302199984E-04
  2.117404800E+02 -1.825079993E-03
  6.722346800E+01 -6.682749976E-03
  2.337217700E+01 -2.095119992E-02
  8.721373000E+00 -5.200308981E-02
  3.468091000E+00 -9.849176964E-02
  1.452144000E+00 -1.355800695E-01
  6.086150000E-01 -6.429875976E-02
  2.576860000E-01  3.125414989E-01
  1.041760000E-01  6.270468577E-01
  4.242700000E-02  2.110231492E-01
  1.484900000E-02 -4.104669985E-03
   p   9
  3.371018400E+01  1.069960000E-03
  8.057649500E+00  6.828550001E-03
  2.836471400E+00  2.119065000E-02
  1.099965700E+00  5.843696001E-02
  4.433964000E-01  2.020920800E-01
  1.822264000E-01  4.582953101E-01
  7.572410000E-02  3.691239601E-01
  3.168540000E-02  6.611471001E-02
  1.108990000E-02  1.405160000E-03
 
   2
   s  14
  9.497934400E+03  9.668999974E-05
  1.416811200E+03  6.087099984E-04
  3.214599400E+02  3.101519992E-03
  9.112416300E+01  1.266904997E-02
  2.999989100E+01  4.248012989E-02
  1.101763100E+01  1.150183297E-01
  4.372801000E+00  2.398650094E-01
  1.831256000E+00  3.584300090E-01
  8.022610000E-01  3.048527792E-01
  3.626480000E-01  8.824261976E-02
  1.139950000E-01 -8.445899977E-04
  5.123700000E-02 -7.943959979E-03
  2.246800000E-02 -3.764419990E-03
  7.860000000E-03 -8.868999976E-05
   s  14
  9.497934400E+03 -1.244999993E-05
  1.416811200E+03 -7.838999954E-05
  3.214599400E+02 -4.007099976E-04
  9.112416300E+01 -1.645249990E-03
  2.999989100E+01 -5.634599967E-03
  1.101763100E+01 -1.590780991E-02
  4.372801000E+00 -3.612581979E-02
  1.831256000E+00 -6.459927962E-02
  8.022610000E-01 -1.008321794E-01
  3.626480000E-01 -9.757613942E-02
  1.139950000E-01  2.301215886E-01
  5.123700000E-02  6.102389764E-01
  2.246800000E-02  2.849406083E-01
  7.860000000E-03  4.026899976E-03
   p   9
  1.311950400E+01  1.524940000E-03
  3.077424200E+00  8.314830000E-03
  1.098800500E+00  1.933203000E-02
  4.357784000E-01  4.934293000E-02
  1.802432000E-01  1.623554000E-01
  7.613330000E-02  3.847505400E-01
  3.254650000E-02  4.336100400E-01
  1.401820000E-02  1.287005900E-01
  4.906400000E-03 -1.018520000E-03
 
[MO]
Sym=     1a  
Ene=    -4.7491
Spin= Alpha
Occup=    1.00000
   1         1.00014858
   2         0.00401491
   3        -0.00000000
   4        -0.00000000
   5         0.00283775
   6         0.00202499
   7        -0.00185531
   8         0.00000000
   9         0.00000000
  10        -0.00011589
Sym=     1a  
Ene=    -4.7491
Spin= Beta
Occup=    1.00000
   1         1.00014858
   2         0.00401491
   3        -0.00000000
   4        -0.00000000
   5         0.00283775
   6         0.00202499
   7        -0.00185531
   8         0.00000000
   9         0.00000000
  10        -0.00011589
Sym=     2a  
Ene=    -2.5676
Spin= Alpha
Occup=    1.00000
   1        -0.01466981
   2         0.00656220
   3         0.00000000
   4         0.00000000
   5         0.00875686
   6         0.99610075
   7         0.00362626
   8         0.00000000
   9         0.00000000
  10        -0.00053791
Sym=     2a  
Ene=    -2.5676
Spin= Beta
Occup=    1.00000
   1        -0.01466981
   2         0.00656220
   3         0.00000000
   4         0.00000000
   5         0.00875686
   6         0.99610075
   7         0.00362626
   8         0.00000000
   9         0.00000000
  10        -0.00053791
Sym=     3a  
Ene=    -0.3241
Spin= Alpha
Occup=    1.00000
   1        -0.04395907
   2         0.78604772
   3         0.00000001
   4         0.00000000
   5         0.10445115
   6        -0.18995858
   7         0.19956176
   8        -0.00000001
   9        -0.00000000
  10        -0.14423820
Sym=     3a  
Ene=    -0.3241
Spin= Beta
Occup=    1.00000
   1        -0.04395907
   2         0.78604772
   3         0.00000001
   4         0.00000000
   5         0.10445115
   6        -0.18995858
   7         0.19956176
   8        -0.00000001
   9        -0.00000000
  10        -0.14423820
Sym=     4a  
Ene=    -0.0000
Spin= Alpha
Occup=    1.00000
   1         0.00000001
   2         0.00000015
   3         0.67294394
   4         0.24179414
   5        -0.00000015
   6         0.00000002
   7        -0.00000027
   8         0.36444279
   9         0.13094721
  10        -0.00000012
Sym=     4a  
Ene=    -0.0000
Spin= Beta
Occup=    0.00000
   1         0.00000001
   2         0.00000015
   3         0.67294394
   4         0.24179414
   5        -0.00000015
   6         0.00000002
   7        -0.00000027
   8         0.36444279
   9         0.13094721
  10        -0.00000012
Sym=     5a  
Ene=     0.0091
Spin= Alpha
Occup=    0.00000
   1         0.00000000
   2         0.00000000
   3        -0.13543073
   4         0.37692100
   5        -0.00000000
   6         0.00000000
   7        -0.00000000
   8        -0.23788867
   9         0.66207451
  10         0.00000000
Sym=     5a  
Ene=     0.0091
Spin= Beta
Occup=    0.00000
   1         0.00000000
   2         0.00000000
   3        -0.13543073
   4         0.37692100
   5        -0.00000000
   6         0.00000000
   7        -0.00000000
   8        -0.23788867
   9         0.66207451
  10         0.00000000
Sym=     6a  
Ene=     0.0144
Spin= Alpha
Occup=    0.00000
   1        -0.02710218
   2         0.17861995
   3        -0.00000014
   4        -0.00000005
   5        -0.09627027
   6         0.00052945
   7        -0.69123878
   8        -0.00000023
   9        -0.00000008
  10        -0.67288115
Sym=     6a  
Ene=     0.0144
Spin= Beta
Occup=    0.00000
   1        -0.02710218
   2         0.17861995
   3        -0.00000014
   4        -0.00000005
   5        -0.09627027
   6         0.00052945
   7        -0.69123878
   8        -0.00000023
   9        -0.00000008
  10        -0.67288115
Sym=     7a  
Ene=     0.1473
Spin= Alpha
Occup=    0.00000
   1         0.09899841
   2         0.45164662
   3         0.00000017
   4         0.00000006
   5        -1.04218856
   6         0.23192436
   7        -0.01623275
   8        -0.00000034
   9        -0.00000012
  10         0.64904297
Sym=     7a  
Ene=     0.1473
Spin= Beta
Occup=    0.00000
   1         0.09899841
   2         0.45164662
   3         0.00000017
   4         0.00000006
   5        -1.04218856
   6         0.23192436
   7        -0.01623275
   8        -0.00000034
   9        -0.00000012
  10         0.64904297
Sym=     8a  
Ene=     0.1758
Spin= Alpha
Occup=    0.00000
   1         0.00000001
   2         0.00000007
   3        -0.98084149
   4        -0.35242420
   5        -0.00000029
   6         0.00000008
   7        -0.00000001
   8         1.13229193
   9         0.40684156
  10         0.00000006
Sym=     8a  
Ene=     0.1758
Spin= Beta
Occup=    0.00000
   1         0.00000001
   2         0.00000007
   3        -0.98084149
   4        -0.35242420
   5        -0.00000029
   6         0.00000008
   7        -0.00000001
   8         1.13229193
   9         0.40684156
  10         0.00000006
Sym=     9a  
Ene=     0.1957
Spin= Alpha
Occup=    0.00000
   1         0.00000000
   2         0.00000000
   3         0.40537111
   4        -1.12819951
   5         0.00000000
   6        -0.00000000
   7        -0.00000000
   8        -0.35507211
   9         0.98821097
  10         0.00000000
Sym=     9a  
Ene=     0.1957
Spin= Beta
Occup=    0.00000
   1         0.00000000
   2         0.00000000
   3         0.40537111
   4        -1.12819951
   5         0.00000000
   6        -0.00000000
   7        -0.00000000
   8        -0.35507211
   9         0.98821097
  10         0.00000000
Sym=    10a  
Ene=     0.2472
Spin= Alpha
Occup=    0.00000
   1        -0.45498524
   2        -2.45067913
   3         0.00000004
   4         0.00000001
   5        -0.57941368
   6         0.64409480
   7         2.10926401
   8        -0.00000003
   9        -0.00000001
  10        -1.47074330
Sym=    10a  
Ene=     0.2472
Spin= Beta
Occup=    0.00000
   1        -0.45498524
   2        -2.45067913
   3         0.00000004
   4         0.00000001
   5        -0.57941368
   6         0.64409480
   7         2.10926401
   8        -0.00000003
   9        -0.00000001
  10        -1.47074330
