[Molden Format]
[N_Atoms]
                     2
[Atoms] (AU)
BE1         1      4           0.00000000      0.00000000      0.00000000
LI2         2      3           0.00000000      0.00000000      2.64561657
[Charge] (Mulliken)
 -0.150557083748143     
  0.150557083748123     
[GTO] (AU)
   1
   s  14
  2.262859900E+04  8.443999941E-05
  3.372318100E+03  4.601499968E-04
  7.603504000E+02  2.285389984E-03
  2.117404800E+02  9.648129932E-03
  6.722346800E+01  3.494469975E-02
  2.337217700E+01  1.061099893E-01
  8.721373000E+00  2.458240383E-01
  3.468091000E+00  3.862428773E-01
  1.452144000E+00  3.105526078E-01
  6.086150000E-01  6.415933955E-02
  2.576860000E-01 -2.265049984E-03
  1.041760000E-01 -5.217499963E-04
  4.242700000E-02 -8.757499938E-04
  1.484900000E-02  1.242199991E-04
   s  14
  2.262859900E+04 -1.586999994E-05
  3.372318100E+03 -8.656999968E-05
  7.603504000E+02 -4.302199984E-04
  2.117404800E+02 -1.825079993E-03
  6.722346800E+01 -6.682749976E-03
  2.337217700E+01 -2.095119992E-02
  8.721373000E+00 -5.200308981E-02
  3.468091000E+00 -9.849176964E-02
  1.452144000E+00 -1.355800695E-01
  6.086150000E-01 -6.429875976E-02
  2.576860000E-01  3.125414989E-01
  1.041760000E-01  6.270468577E-01
  4.242700000E-02  2.110231492E-01
  1.484900000E-02 -4.104669985E-03
   p   9
  3.371018400E+01  1.069960000E-03
  8.057649500E+00  6.828550001E-03
  2.836471400E+00  2.119065000E-02
  1.099965700E+00  5.843696001E-02
  4.433964000E-01  2.020920800E-01
  1.822264000E-01  4.582953101E-01
  7.572410000E-02  3.691239601E-01
  3.168540000E-02  6.611471001E-02
  1.108990000E-02  1.405160000E-03
 
   2
   s  14
  9.497934400E+03  9.668999974E-05
  1.416811200E+03  6.087099984E-04
  3.214599400E+02  3.101519992E-03
  9.112416300E+01  1.266904997E-02
  2.999989100E+01  4.248012989E-02
  1.101763100E+01  1.150183297E-01
  4.372801000E+00  2.398650094E-01
  1.831256000E+00  3.584300090E-01
  8.022610000E-01  3.048527792E-01
  3.626480000E-01  8.824261976E-02
  1.139950000E-01 -8.445899977E-04
  5.123700000E-02 -7.943959979E-03
  2.246800000E-02 -3.764419990E-03
  7.860000000E-03 -8.868999976E-05
   s  14
  9.497934400E+03 -1.244999993E-05
  1.416811200E+03 -7.838999954E-05
  3.214599400E+02 -4.007099976E-04
  9.112416300E+01 -1.645249990E-03
  2.999989100E+01 -5.634599967E-03
  1.101763100E+01 -1.590780991E-02
  4.372801000E+00 -3.612581979E-02
  1.831256000E+00 -6.459927962E-02
  8.022610000E-01 -1.008321794E-01
  3.626480000E-01 -9.757613942E-02
  1.139950000E-01  2.301215886E-01
  5.123700000E-02  6.102389764E-01
  2.246800000E-02  2.849406083E-01
  7.860000000E-03  4.026899976E-03
   p   9
  1.311950400E+01  1.524940000E-03
  3.077424200E+00  8.314830000E-03
  1.098800500E+00  1.933203000E-02
  4.357784000E-01  4.934293000E-02
  1.802432000E-01  1.623554000E-01
  7.613330000E-02  3.847505400E-01
  3.254650000E-02  4.336100400E-01
  1.401820000E-02  1.287005900E-01
  4.906400000E-03 -1.018520000E-03
 
[MO]
Sym=     1a  
Ene=    -4.8227
Spin= Alpha
Occup=    1.00000
   1         1.00014311
   2         0.00434534
   3         0.00000000
   4         0.00000000
   5         0.00305771
   6         0.00158895
   7        -0.00168856
   8         0.00000000
   9         0.00000000
  10        -0.00006031
Sym=     1a  
Ene=    -4.8210
Spin= Beta
Occup=    1.00000
   1         1.00002744
   2         0.00324614
   3        -0.00000000
   4         0.00000000
   5         0.00392730
   6         0.00165181
   7        -0.00150614
   8         0.00000000
   9         0.00000000
  10        -0.00068550
Sym=     2a  
Ene=    -2.5579
Spin= Alpha
Occup=    1.00000
   1        -0.01476616
   2         0.01092212
   3        -0.00000000
   4        -0.00000000
   5         0.01100659
   6         0.99452662
   7         0.00338375
   8         0.00000000
   9         0.00000000
  10        -0.00331771
Sym=     2a  
Ene=    -2.5549
Spin= Beta
Occup=    1.00000
   1        -0.01455215
   2         0.01452049
   3         0.00000000
   4         0.00000000
   5         0.01318468
   6         0.99314755
   7         0.00120941
   8         0.00000000
   9         0.00000000
  10        -0.00273916
Sym=     3a  
Ene=    -0.3816
Spin= Alpha
Occup=    1.00000
   1        -0.01297778
   2         0.93553283
   3         0.00000000
   4         0.00000000
   5        -0.09002500
   6        -0.16399683
   7         0.09413321
   8        -0.00000000
   9        -0.00000000
  10        -0.01236738
Sym=     3a  
Ene=    -0.3615
Spin= Beta
Occup=    1.00000
   1        -0.02613521
   2         0.89439725
   3        -0.00000000
   4        -0.00000000
   5         0.25257973
   6        -0.26330640
   7         0.03497377
   8         0.00000000
   9         0.00000000
  10        -0.14729477
Sym=     4a  
Ene=    -0.1855
Spin= Alpha
Occup=    1.00000
   1        -0.03378956
   2        -0.31952687
   3        -0.00000000
   4        -0.00000000
   5         0.46097119
   6        -0.08543384
   7         0.74595969
   8        -0.00000000
   9        -0.00000000
  10         0.31082119
Sym=     4a  
Ene=    -0.0047
Spin= Beta
Occup=    0.00000
   1        -0.00000000
   2        -0.00000000
   3         0.48023802
   4        -0.33674291
   5         0.00000000
   6         0.00000000
   7         0.00000000
   8         0.43156236
   9        -0.30261153
  10         0.00000000
Sym=     5a  
Ene=    -0.0184
Spin= Alpha
Occup=    0.00000
   1         0.00000000
   2        -0.00000000
   3         0.42312932
   4        -0.30801896
   5         0.00000000
   6         0.00000000
   7         0.00000000
   8         0.47712385
   9        -0.34732452
  10         0.00000000
Sym=     5a  
Ene=    -0.0047
Spin= Beta
Occup=    0.00000
   1        -0.00000000
   2        -0.00000000
   3         0.33674291
   4         0.48023802
   5         0.00000000
   6         0.00000000
   7         0.00000000
   8         0.30261153
   9         0.43156236
  10         0.00000000
Sym=     6a  
Ene=    -0.0184
Spin= Alpha
Occup=    0.00000
   1         0.00000000
   2        -0.00000000
   3         0.30801896
   4         0.42312932
   5         0.00000000
   6         0.00000000
   7         0.00000000
   8         0.34732452
   9         0.47712385
  10         0.00000000
Sym=     6a  
Ene=     0.0636
Spin= Beta
Occup=    0.00000
   1        -0.00644269
   2        -0.31357232
   3        -0.00000000
   4        -0.00000000
   5         0.22043193
   6        -0.01173315
   7         0.77400222
   8        -0.00000000
   9        -0.00000000
  10         0.51375771
Sym=     7a  
Ene=     0.0687
Spin= Alpha
Occup=    0.00000
   1         0.11570869
   2         0.26171525
   3         0.00000000
   4         0.00000000
   5        -0.91745539
   6         0.23241665
   7         0.18010919
   8        -0.00000000
   9        -0.00000000
  10         0.89763878
Sym=     7a  
Ene=     0.1337
Spin= Beta
Occup=    0.00000
   1        -0.01263386
   2        -0.06043327
   3        -0.00000000
   4        -0.00000000
   5        -1.10666559
   6         0.34995469
   7         0.58526040
   8         0.00000000
   9         0.00000000
  10         0.34177237
Sym=     8a  
Ene=     0.1563
Spin= Alpha
Occup=    0.00000
   1         0.00000000
   2         0.00000000
   3        -1.05918970
   4         0.44919247
   5        -0.00000000
   6         0.00000000
   7         0.00000000
   8         1.02900522
   9        -0.43639151
  10         0.00000000
Sym=     8a  
Ene=     0.1852
Spin= Beta
Occup=    0.00000
   1         0.00000000
   2         0.00000000
   3        -1.02968364
   4         0.43965673
   5         0.00000000
   6        -0.00000000
   7        -0.00000000
   8         1.05652455
   9        -0.45111733
  10        -0.00000000
Sym=     9a  
Ene=     0.1563
Spin= Alpha
Occup=    0.00000
   1        -0.00000000
   2         0.00000000
   3        -0.44919247
   4        -1.05918970
   5        -0.00000000
   6         0.00000000
   7         0.00000000
   8         0.43639151
   9         1.02900522
  10         0.00000000
Sym=     9a  
Ene=     0.1852
Spin= Beta
Occup=    0.00000
   1         0.00000000
   2         0.00000000
   3        -0.43965673
   4        -1.02968364
   5         0.00000000
   6        -0.00000000
   7        -0.00000000
   8         0.45111733
   9         1.05652455
  10        -0.00000000
Sym=    10a  
Ene=     0.2245
Spin= Alpha
Occup=    0.00000
   1         0.45253579
   2         2.41116072
   3        -0.00000000
   4        -0.00000000
   5         0.61618676
   6        -0.64780802
   7        -2.09024883
   8         0.00000000
   9         0.00000000
  10         1.46812380
Sym=    10a  
Ene=     0.2267
Spin= Beta
Occup=    0.00000
   1         0.46780417
   2         2.44079917
   3         0.00000000
   4         0.00000000
   5         0.32381355
   6        -0.56450984
   7        -2.00600963
   8         0.00000000
   9         0.00000000
  10         1.62955748
