   This run of MOLCAS is using the pymolcas driver

                             OPE
                             OPE          NMOL  CASOP  ENMOLC A   SO
                 OPE        NMOLC        AS  OP EN  MO LC     AS  OP
                OPENM       OL CA        SO  PE NM  OL CA     SOP EN
                OP EN      MO   LC       AS  OP ENMOL  CASO   PENMOL
                OP  EN     MO   LC       AS  OP EN     MO     LC ASO
               OP   E  NMOL  C  AS       OP  EN MO     LC     AS  OP
               OP  E   NMO   LC AS        OPEN  MO     LCASOP EN   M
               O  PEN   MO  LCA  SO
            OPE   NMO   L   CAS    OP
        OPENMOL  CASOP     ENMOL   CASOPE
     OPENMOLCA   SOPENMOLCASOPEN   MOLCASOPE
    OPENMOLCAS   OP           EN   MOL    CAS
    OPENMOLCAS       OP  ENM        O     LCA
    OPENMOLCAS    OPEN  MOLCASO     P  E  NMO
    OPENMOLCAS     OP               E  N  MOL
    OPENMOLCA   SO           PENM   O  L  CAS    OPEN    MO    LCAS
    OPENMOLCA   SOP           ENM   O  L  CAS   OP  EN  MOLC  AS   O
    OPENMOLCA   SOPE           NM      O  LCA   S      OP  EN MO
    OPENMOLC                AS         O  PEN   M      OL  CA  SOPE
    OPENMO        LCASOPE  NMOL        C  ASO   P      ENMOLC     AS
    OPE     NMO      LCA  SO     P     E   NM   OL  CA SO  PE N   MO
          OPENMOLCA            SOPE   NMO        LCAS  O    P  ENMO
     OPENMOLCASOPENMOLCASOPENMOLCASOPENMOLCA
        OPENMOLCASOPENMOLCASOPENMOLCASOPE
            OPENMOLCASOPENMOLCASOPENM
               OPENMOLCASOPENMOLCA        version: 1d1d16313-dirty
                   OPENMOLCASO
                       OPE                tag:

 OpenMolcas is free software; you can redistribute it and/or modify it
 under the terms of the GNU Lesser General Public License version 2.1.
 OpenMolcas is distributed in the hope that it will be useful, but it
 is provided "as is" and without any express or implied warranties.
 For more details see the full text of the license in the file
 LICENSE or in <http://www.gnu.org/licenses/>.

                 Copyright (C) The OpenMolcas Authors
           For the author list and the recommended citation,
                   consult the file CONTRIBUTORS.md

           *************************************************
           * pymolcas version py2.28                       *
           *   build c4a6d18ded8cb6cad61d2372a9abd97c      *
           *   (after the EMIL interpreter by V. Veryazov) *
           *************************************************

configuration info
------------------
C Compiler ID: IntelLLVM
C flags: -std=gnu99
Fortran Compiler ID: IntelLLVM
Fortran flags: -standard-semantics -fltconsistency -fpp -i8 -heap-arrays
Definitions: _MOLCAS_;_I8_;_LINUX_
Parallel: OFF (GA=OFF)


   ------------------------------------------------------------------------------
  |
  |              Project: ozone_168.75
  |       Submitted from: /home/grierjones/DDCASPT2/ozone/ANO-RCC-MB/ozone_168.75
  |         Scratch area: /tmp/ozone_168.75
  |      Save outputs to: /home/grierjones/DDCASPT2/ozone/ANO-RCC-MB/ozone_168.75
  |               Molcas: /home/grierjones/Test/build
  |
  | Scratch area is empty
  |
  |       MOLCAS_DRIVER = /usr/local/pymolcas
  | MOLCAS_KEEP_WORKDIR = NO
  |  MOLCAS_NEW_WORKDIR = YES
  |       MOLCAS_NPROCS = 1
  |        MOLCAS_PRINT = NORMAL
  |       MOLCAS_SOURCE = /home/grierjones/Test
  |    MOLCAS_STRUCTURE = 0
  |
   ------------------------------------------------------------------------------

++ ---------   Input file   ---------

&GATEWAY
coord=ozone_168.75.xyz
Basis = ANO-RCC-MB
Group = nosymm
Expert
End of Input

&SEWARD
End of Input

&SCF

>>> COPY $WorkDir/ozone_168.75.scf.h5 $CurrDir/

&RASSCF
Title= RASSCF
FileOrb
/home/grierjones/DDCASPT2/ozone/ANO-RCC-MB/ozone_168.50/ozone_168.50.RasOrb
NACTEL
4 0 0
Inactive
10
RAS2
3
Symmetry
1
Spin
1
orblisting
all
ITERation
300 200

>>> COPY $WorkDir/ozone_168.75.rasscf.h5 $CurrDir/

>>> COPY $WorkDir/GMJ_Fock_MO.csv $CurrDir/ozone_168.75.GMJ_Fock_MO.csv

>>> COPY $WorkDir/GMJ_PT2_Fock_MO.csv $CurrDir/ozone_168.75.GMJ_PT2_Fock_MO.csv

&MOTRA
Frozen=0
LUMORB

>>> COPY $WorkDir/GMJ_one_int_indx.csv $CurrDir/ozone_168.75.GMJ_one_int_indx.csv

>>> COPY $WorkDir/GMJ_one_int.csv $CurrDir/ozone_168.75.GMJ_one_int.csv

>>> COPY $WorkDir/GMJ_two_int_indx.csv $CurrDir/ozone_168.75.GMJ_two_int_indx.csv

>>> COPY $WorkDir/GMJ_two_int.csv $CurrDir/ozone_168.75.GMJ_two_int.csv

&CASPT2
Frozen
0
MAXITER
50

>>> FOREACH i IN (B,E,F,G,H)

  >>> FOREACH j IN (P,M)

    >>> IF (-FILE GMJ_e2_${i}_${j}.csv)

      >>> COPY $WorkDir/GMJ_RHS_${i}_${j}.csv $CurrDir/GMJ_RHS_${i}_${j}.csv

      >>> COPY $WorkDir/GMJ_IVECW_${i}_${j}.csv $CurrDir/GMJ_IVECW_${i}_${j}.csv

      >>> COPY $WorkDir/GMJ_IVECX_${i}_${j}.csv $CurrDir/GMJ_IVECX_${i}_${j}.csv

      >>> COPY $WorkDir/GMJ_IVECC2_${i}_${j}.csv $CurrDir/GMJ_IVECC2_${i}_${j}.csv

      >>> COPY $WorkDir/GMJ_e2_${i}_${j}.csv $CurrDir/GMJ_e2_${i}_${j}.csv

    >>> END IF

  >>> END FOREACH

>>> END FOREACH

>>> FOREACH i IN (A,C,D)

  >>> IF (-FILE GMJ_e2_$i.csv)

    >>> COPY $WorkDir/GMJ_RHS_$i.csv $CurrDir/GMJ_RHS_$i.csv

    >>> COPY $WorkDir/GMJ_IVECW_$i.csv $CurrDir/GMJ_IVECW_$i.csv

    >>> COPY $WorkDir/GMJ_IVECX_$i.csv $CurrDir/GMJ_IVECX_$i.csv

    >>> COPY $WorkDir/GMJ_IVECC2_$i.csv $CurrDir/GMJ_IVECC2_$i.csv

    >>> COPY $WorkDir/GMJ_e2_$i.csv $CurrDir/GMJ_e2_$i.csv

  >>> END IF

>>> END FOREACH

-- ----------------------------------

--- Start Module: gateway at Sat Jan 25 14:09:58 2025 ---
 
()()()()()()()()()()()()()()()()()()()()()()()()()()()()()()()()()()()()()()()()()()()()()()()()()()

                                              &GATEWAY

                                   only a single process is used
                       available to each process: 2.0 GB of memory, 1 thread?
()()()()()()()()()()()()()()()()()()()()()()()()()()()()()()()()()()()()()()()()()()()()()()()()()()
 
 ###############################################################################
 ###############################################################################
 ###                                                                         ###
 ###                                                                         ###
 ###                                                                         ###
 ###    WARNING: EXPERT option is ON!                                        ###
 ###                                                                         ###
 ###                                                                         ###
 ###############################################################################
 ###############################################################################
 
++    Symmetry information:
      ---------------------
 
                    Character Table for C1 
 
                             E  
                    a        1  x, y, xy, Rz, z, xz, Ry, yz, Rx, I
--
 
 
++    Basis set information:
      ----------------------
 
 
      Basis set label: O.ANO-RCC...2S1P.
 
      Electronic valence basis set:
      ------------------
      Associated Effective Charge   8.000000 au
      Associated Actual Charge      8.000000 au
      Nuclear Model: Point charge
 
      Shell  nPrim  nBasis  Cartesian Spherical Contaminant
         s      14       2        X                  
         p       9       1        X                  
--
 
 
++    Molecular structure info:
      -------------------------
 
                    ************************************************ 
                    **** Cartesian Coordinates / Bohr, Angstrom **** 
                    ************************************************ 
 
     Center  Label                x              y              z                     x              y              z
        1      O1               0.236718       2.403441       0.000000              0.125266       1.271846       0.000000
        2      O2               0.000000       0.000000       0.000000              0.000000       0.000000       0.000000
        3      O3               0.236718      -2.403441       0.000000              0.125266      -1.271846       0.000000
 
                    *************************************** 
                    *    InterNuclear Distances / Bohr    * 
                    *************************************** 
 
               1 O1            2 O2            3 O3    
    1 O1       0.000000
    2 O2       2.415070        0.000000
    3 O3       4.806881        2.415070        0.000000
 
                    ******************************************* 
                    *    InterNuclear Distances / Angstrom    * 
                    ******************************************* 
 
               1 O1            2 O2            3 O3    
    1 O1       0.000000
    2 O2       1.278000        0.000000
    3 O3       2.543692        1.278000        0.000000
 
                    ************************************** 
                    *    Valence Bond Angles / Degree    * 
                    ************************************** 
                          Atom centers                 Phi
                      1 O1       2 O2       3 O3       168.75
--
 
 
            Nuclear Potential Energy             66.31478352 au
 
 ###############################################################################
 ###############################################################################
 ###                                                                         ###
 ###                                                                         ###
 ###    There were warnings during the execution                             ###
 ###    Please, check the output with care!                                  ###
 ###                                                                         ###
 ###                                                                         ###
 ###############################################################################
 ###############################################################################
--- Stop Module: gateway at Sat Jan 25 14:09:58 2025 /rc=_RC_ALL_IS_WELL_ ---
*** files: xmldump
    saved to directory /home/grierjones/DDCASPT2/ozone/ANO-RCC-MB/ozone_168.75

--- Start Module: seward at Sat Jan 25 14:09:58 2025 ---
 
()()()()()()()()()()()()()()()()()()()()()()()()()()()()()()()()()()()()()()()()()()()()()()()()()()

                                              &SEWARD

                                   only a single process is used
                       available to each process: 2.0 GB of memory, 1 thread?
()()()()()()()()()()()()()()()()()()()()()()()()()()()()()()()()()()()()()()()()()()()()()()()()()()
 
 ###############################################################################
 ###############################################################################
 ###                                                                         ###
 ###                                                                         ###
 ###                                                                         ###
 ###    WARNING: EXPERT option is ON!                                        ###
 ###                                                                         ###
 ###                                                                         ###
 ###############################################################################
 ###############################################################################
               SEWARD will generate:
                  Multipole Moment integrals up to order  2
                  Kinetic Energy integrals
                  Nuclear Attraction integrals (point charge)
                  One-Electron Hamiltonian integrals
                  Velocity integrals
                  Relativistic Douglas-Kroll-Hess integrals:
                    - Parametrization         : EXP
                    - DKH order of Hamiltonian: 2
                    - DKH order of Properties : 0
                         - multipole moment operators
                         - electric potential operators
                         - contact operators
                  Atomic mean-field integrals
                  Two-Electron Repulsion integrals
 
                   Integrals are discarded if absolute value <: 0.10E-13
                   Integral cutoff threshold is set to       <: 0.10E-15
 
            Nuclear Potential Energy             66.31478352 au
 
 
      Basis set specifications :
      Symmetry species         a  
      Basis functions           15
 
 
  Input file to MOLDEN was generated!
 
 ###############################################################################
 ###############################################################################
 ###                                                                         ###
 ###                                                                         ###
 ###    There were warnings during the execution                             ###
 ###    Please, check the output with care!                                  ###
 ###                                                                         ###
 ###                                                                         ###
 ###############################################################################
 ###############################################################################
forrtl: warning (525): IEEE_DIVIDE_BY_ZERO is signaling
forrtl: warning (526): IEEE_INVALID is signaling
forrtl: warning (528): IEEE_UNDERFLOW is signaling
--- Stop Module: seward at Sat Jan 25 14:09:58 2025 /rc=_RC_ALL_IS_WELL_ ---
*** files: ozone_168.75.GssOrb ozone_168.75.guessorb.h5 ozone_168.75.guessorb.molden xmldump
    saved to directory /home/grierjones/DDCASPT2/ozone/ANO-RCC-MB/ozone_168.75

*** symbolic link created: INPORB -> ozone_168.75.GssOrb
--- Start Module: scf at Sat Jan 25 14:09:58 2025 ---
 
()()()()()()()()()()()()()()()()()()()()()()()()()()()()()()()()()()()()()()()()()()()()()()()()()()

                                                &SCF

                                   only a single process is used
                       available to each process: 2.0 GB of memory, 1 thread?
()()()()()()()()()()()()()()()()()()()()()()()()()()()()()()()()()()()()()()()()()()()()()()()()()()
 
++    Input section:
      --------------
 
      Header of the integral files:
      
       Integrals generated by seward 4.2.0  , Sat Jan 25 14:09:58 2025
 
 
      Cartesian coordinates in Angstrom:
      -----------------------------------------------------
      No.  Label        X            Y            Z        
      -----------------------------------------------------
       1   O1         0.12526600   1.27184600   0.00000000
       2   O2         0.00000000   0.00000000   0.00000000
       3   O3         0.12526600  -1.27184600   0.00000000
      -----------------------------------------------------
      Nuclear repulsion energy =   66.31478352
--
 
++    Orbital specifications:
      -----------------------
 
      Symmetry species               1
                                     a
      Frozen orbitals                0
      Aufbau                        12
      Start temperature = 0.500
      End temperature   = 0.010
      Temperature Factor= 0.460
      Deleted orbitals               0
      Total number of orbitals      15
      Number of basis functions     15
--
 
      Molecular charge                           0.000
 
++    Optimization specifications:
      ----------------------------
 
      SCF Algorithm: Conventional
      Minimized density differences are used
      Number of density matrices in core                5
      Maximum number of NDDO SCF iterations           400
      Maximum number of HF SCF iterations             400
      Threshold for SCF energy change            0.10E-08
      Threshold for density matrix               0.10E-03
      Threshold for Fock matrix                  0.15E-03
      Threshold for linear dependence            0.10E-08
      Threshold at which DIIS is turned on       0.15E+00
      Threshold at which QNR/C2DIIS is turned on 0.75E-01
      Threshold for Norm(delta) (QNR/C2DIIS)     0.20E-04
      DIIS extrapolation of the SCF procedure
      All orbitals punched on: SCFORB
--
 
      Input vectors read from INPORB
      Orbital file label: *Guess orbitals
 
 
++ Convergence information
                                   SCF        iterations: Energy and convergence statistics
 
Iter     Tot. SCF        One-elec.       Two-elec.     Energy      Max Dij or  Max Fij      DNorm      TNorm      AccCon     Time
         Energy          Energy          Energy        Change      Delta Norm                                                in Sec.
   1  -221.453421818  -440.275419042   152.507213701   0.00E+00    0.66E-01*   0.13E+00*    0.77E+01   0.50E+02   None         0.
   2  -222.905699446  -439.419674638   150.199191669  -0.15E+01*   0.58E-01*   0.45E-01*    0.30E+01   0.50E+02   EDIIS        0.
   3  -223.692890856  -439.028768293   149.021093914  -0.79E+00*   0.36E-01*   0.25E-01*    0.15E+01   0.49E+02   EDIIS        0.
   4  -223.953499720  -438.452892429   148.184609186  -0.26E+00*   0.81E-01*   0.55E-01*    0.34E+00   0.49E+02   EDIIS        0.
   5  -223.991316714  -438.789162895   148.483062659  -0.38E-01*   0.77E-01*   0.34E-01*    0.73E+00   0.49E+02   EDIIS        0.
   6  -224.186416343  -438.491774936   147.990575070  -0.20E+00*   0.35E-01*   0.37E-01*    0.65E+00   0.49E+02   EDIIS        0.
   7  -224.188919720  -438.642551601   148.138848358  -0.25E-02*   0.40E-01*   0.14E-01*    0.97E-01   0.49E+02   EDIIS        0.
 
       Fermi aufbau procedure completed!
      nOcc=   12
 
   8  -224.189578004  -438.566020030   148.061658503  -0.66E-03*   0.12E-01*   0.94E-02*    0.41E-01   0.49E+02   EDIIS        0.
   9  -224.189800752  -438.610519028   148.105934753  -0.22E-03*   0.13E-01*   0.46E-02*    0.11E-01   0.49E+02   EDIIS        0.
  10  -224.189879984  -438.589394941   148.084731434  -0.79E-04*   0.39E-02*   0.27E-02*    0.24E-02   0.49E+02   EDIIS        0.
  11  -224.189909334  -438.602407801   148.097714944  -0.29E-04*   0.42E-02*   0.15E-02*    0.54E-03   0.49E+02   EDIIS        0.
  12  -224.189920692  -438.596535648   148.091831433  -0.11E-04*   0.30E-02*   0.31E-03*    0.17E-03   0.49E+02   c2DIIS       0.
  13  -224.189922719  -438.597864490   148.093158249  -0.20E-05*   0.11E-02*   0.63E-03*    0.77E-05   0.49E+02   QNRc2DIIS    0.
  14  -224.189926097  -438.599771884   148.095062264  -0.34E-05*   0.24E-02*   0.37E-03*    0.10E-01   0.49E+02   QNRc2DIIS    0.
  15  -224.189928616  -438.599115270   148.094403131  -0.25E-05*   0.20E-03*   0.17E-03*    0.52E-03   0.49E+02   QNRc2DIIS    0.
  16  -224.189928703  -438.599703942   148.094991715  -0.87E-07*   0.27E-03*   0.44E-04     0.18E-02   0.49E+02   QNRc2DIIS    0.
  17  -224.189928743  -438.599694572   148.094982306  -0.40E-07*   0.71E-05    0.29E-05     0.19E-04   0.49E+02   QNRc2DIIS    0.
  18  -224.189928743  -438.599691068   148.094978802  -0.51E-10    0.22E-06    0.12E-06     0.89E-03   0.49E+02   QNRc2DIIS    0.
 
       Convergence after 18 Macro Iterations
--
 
 *****************************************************************************************************************************
 *                                                                                                                           *
 *                                             SCF/KS-DFT Program, Final results                                             *
 *                                                                                                                           *
 *                                                                                                                           *
 *                                                                                                                           *
 *                                                       Final Results                                                       *
 *                                                                                                                           *
 *****************************************************************************************************************************
 
::    Total SCF energy                               -224.1899287435
      One-electron energy                            -438.5996910681
      Two-electron energy                             148.0949788017
      Nuclear repulsion energy                         66.3147835229
      Kinetic energy (interpolated)                   224.7711200808
      Virial theorem                                    0.9974142971
      Total spin, S(S+1)                                0.0000000000
      Total spin, S                                     0.0000000000
      Max non-diagonal density matrix element           0.0000003468
      Max non-diagonal Fock matrix element              0.0000000611
 
 
      All orbitals with orbital energies smaller than  E(LUMO)+0.5 are printed
 
++    Molecular orbitals:
      -------------------
 
      Title: SCF orbitals

      Molecular orbitals for symmetry species 1: a  
 
          Orbital            1         2         3         4         5         6         7         8         9        10    
          Energy          -20.9941  -20.8134  -20.8133   -1.7502   -1.5114   -1.1022   -0.8778   -0.8044   -0.8039   -0.6587
          Occ. No.          2.0000    2.0000    2.0000    2.0000    2.0000    2.0000    2.0000    2.0000    2.0000    2.0000
 
        1 O1     1s         0.0012   -0.7071    0.7071   -0.0153    0.0166    0.0139   -0.0035   -0.0000   -0.0280    0.0032
        2 O1     2s        -0.0003   -0.0002    0.0000    0.3169   -0.5323    0.6594   -0.0633   -0.0000   -0.4654    0.0468
        3 O1     2px       -0.0001    0.0001   -0.0001   -0.0116    0.0087    0.0238    0.3001   -0.0000   -0.1115   -0.7045
        4 O1     2py        0.0000    0.0013   -0.0011   -0.1048    0.1051    0.1562   -0.0673   -0.0000   -0.4057    0.1206
        5 O1     2pz        0.0000    0.0000    0.0000    0.0000   -0.0000   -0.0000   -0.0000    0.3896   -0.0000    0.0000
        6 O2     1s         1.0000   -0.0000   -0.0020   -0.0241   -0.0000   -0.0137   -0.0012   -0.0000    0.0000    0.0000
        7 O2     2s         0.0002   -0.0000   -0.0010    0.6595    0.0000   -0.6184   -0.0190   -0.0000    0.0000    0.0000
        8 O2     2px        0.0005   -0.0000   -0.0000    0.0368    0.0000    0.0472    0.7765    0.0000   -0.0000   -0.0000
        9 O2     2py       -0.0000    0.0007   -0.0000    0.0000   -0.3614    0.0000   -0.0000    0.0000    0.5980   -0.0736
       10 O2     2pz       -0.0000   -0.0000   -0.0000   -0.0000    0.0000   -0.0000   -0.0000    0.6818   -0.0000    0.0000
       11 O3     1s         0.0012    0.7071    0.7071   -0.0153   -0.0166    0.0139   -0.0035    0.0000    0.0280   -0.0032
       12 O3     2s        -0.0003    0.0002    0.0000    0.3169    0.5323    0.6594   -0.0633    0.0000    0.4654   -0.0468
       13 O3     2px       -0.0001   -0.0001   -0.0001   -0.0116   -0.0087    0.0238    0.3001    0.0000    0.1115    0.7045
       14 O3     2py       -0.0000    0.0013    0.0011    0.1048    0.1051   -0.1562    0.0673   -0.0000   -0.4057    0.1206
       15 O3     2pz        0.0000   -0.0000   -0.0000    0.0000    0.0000   -0.0000   -0.0000    0.3896   -0.0000   -0.0000
 
          Orbital           11        12        13        14    
          Energy           -0.5439   -0.5315   -0.0889    0.1175
          Occ. No.          2.0000    2.0000    0.0000    0.0000
 
        1 O1     1s        -0.0000    0.0014    0.0000    0.0157
        2 O1     2s        -0.0000    0.0088    0.0000    0.2287
        3 O1     2px       -0.0000    0.6652    0.0000   -0.0115
        4 O1     2py        0.0000    0.0173    0.0000   -0.7646
        5 O1     2pz       -0.7161   -0.0000    0.6183   -0.0000
        6 O2     1s         0.0000    0.0078    0.0000   -0.0833
        7 O2     2s         0.0000    0.0913    0.0000   -0.8613
        8 O2     2px       -0.0000   -0.6840   -0.0000   -0.1577
        9 O2     2py        0.0000    0.0000   -0.0000    0.0000
       10 O2     2pz       -0.0000    0.0000   -0.7937   -0.0000
       11 O3     1s         0.0000    0.0014    0.0000    0.0157
       12 O3     2s         0.0000    0.0088    0.0000    0.2287
       13 O3     2px        0.0000    0.6652    0.0000   -0.0115
       14 O3     2py        0.0000   -0.0173   -0.0000    0.7646
       15 O3     2pz        0.7161   -0.0000    0.6183    0.0000
--
 
 
++    Molecular charges:
      ------------------
 
      Mulliken charges per centre and basis function type
      ---------------------------------------------------
 
                O1      O2      O3    
      1s       2.0001  2.0000  2.0001
      2s       1.9201  1.6611  1.9201
      2px      1.9935  1.9750  1.9935
      2pz      1.4231  1.1537  1.4231
      2py      0.7014  1.1336  0.7014
      Total    8.0383  7.9235  8.0383
 
      N-E     -0.0383  0.0765 -0.0383
 
      Total electronic charge=   24.000000
 
      Total            charge=   -0.000000
--
 
 
  Input file to MOLDEN was generated!
 
 
++    Static properties:
      ------------------
 
 
      LoProp Charges per center
 

                   O1       O2       O3    
      Nuclear      8.0000   8.0000   8.0000
      Electronic  -8.0871  -7.8259  -8.0871
 
      Total       -0.0871   0.1741  -0.0871
--
 
 
++    Natural Bond Order analysis
      ---------------------------
      Based on LoProp computed density
      -------------------------------------------------------------------------------------
      Atom A       Atom B       Bond Order | Atom A       Atom B       Bond Order
        O1           O2             2.000  |   O2           O3             2.000
      -------------------------------------------------------------------------------------
      NBO located     12.000 core electrons.
      NBO located      3.968 lone pair electrons.
      NBO located      8.000 electrons involved in    2 bonds.
      The remaining    0.032 electrons are to be considered as diffuse
--
 
 
++    Molecular properties:
      ---------------------
 
      Charge (e):
                      =   -0.0000
      Dipole Moment (Debye):
      Origin of the operator (Ang)=    0.0000    0.0000    0.0000
                   X=  1.0603E-01               Y=  9.8526E-11               Z= -1.6202E-13           Total=  1.0603E-01
      Quadrupole Moment (Debye*Ang):
      Origin of the operator (Ang)=    0.0835    0.0000    0.0000
                  XX= -1.7481E+01              XY=  2.6471E-12              XZ=  3.1693E-12              YY= -1.7695E+01
                  YZ=  2.0761E-13              ZZ= -1.5871E+01
      In traceless form (Debye*Ang)
                  XX= -6.9837E-01              XY=  3.9706E-12              XZ=  4.7540E-12              YY= -1.0189E+00
                  YZ=  3.1141E-13              ZZ=  1.7173E+00
--
 
 
  Input file to MOLDEN was generated!
 
 ###############################################################################
 ###############################################################################
 ###                                                                         ###
 ###                                                                         ###
 ###    RunFile label nBas                                                   ###
 ###    was used       78 times                                              ###
 ###                                                                         ###
 ###                                                                         ###
 ###############################################################################
 ###############################################################################
forrtl: warning (528): IEEE_UNDERFLOW is signaling
--- Stop Module: scf at Sat Jan 25 14:09:59 2025 /rc=_RC_ALL_IS_WELL_ ---
*** files: ozone_168.75.LprOrb ozone_168.75.LoProp.molden ozone_168.75.scf.molden ozone_168.75.ScfOrb ozone_168.75.scf.h5 xmldump
    saved to directory /home/grierjones/DDCASPT2/ozone/ANO-RCC-MB/ozone_168.75

>>> COPY /tmp/ozone_168.75/ozone_168.75.scf.h5 /home/grierjones/DDCASPT2/ozone/ANO-RCC-MB/ozone_168.75/

*** symbolic link created: INPORB -> ozone_168.75.ScfOrb
--- Start Module: rasscf at Sat Jan 25 14:09:59 2025 ---
 
()()()()()()()()()()()()()()()()()()()()()()()()()()()()()()()()()()()()()()()()()()()()()()()()()()

                                              &RASSCF

                                   only a single process is used
                       available to each process: 2.0 GB of memory, 1 thread?
()()()()()()()()()()()()()()()()()()()()()()()()()()()()()()()()()()()()()()()()()()()()()()()()()()
 
 
 *************** WARNING ****************
 ###############################################################################
 ###############################################################################
 ###                                                                         ###
 ###                                                                         ###
 ###    Too many macro-iterations.                                           ###
 ###                                                                         ###
 ###                                                                         ###
 ###############################################################################
 ###############################################################################
 Too many macro-iterations requested.
 Reset to maximum, new MAXIT=     200
 ****************************************
 
 *************** WARNING ****************
 ###############################################################################
 ###############################################################################
 ###                                                                         ###
 ###                                                                         ###
 ###    Too many SX-iterations.                                              ###
 ###                                                                         ###
 ###                                                                         ###
 ###############################################################################
 ###############################################################################
 Too many SX-iterations requested.
 Reset to maximum, new ITMAX=     100
 ****************************************
 
      Header of the ONEINT file:
      --------------------------
      
      Integrals generated by seward 4.2.0  , Sat Jan 25 14:09:58 2025
 
 
      OrdInt status: non-squared
 
 
      Cartesian coordinates in Angstrom:
      -----------------------------------------------------
      No.  Label        X            Y            Z        
      -----------------------------------------------------
       1   O1         0.12526600   1.27184600   0.00000000
       2   O2         0.00000000   0.00000000   0.00000000
       3   O3         0.12526600  -1.27184600   0.00000000
      -----------------------------------------------------
      Nuclear repulsion energy =   66.31478352
 
++    Wave function specifications:
      -----------------------------
 
      Number of closed shell electrons          20
      Number of electrons in active shells       4
      Max number of holes in RAS1 space          0
      Max nr of electrons in RAS3 space          0
      Number of inactive orbitals               10
      Number of active orbitals                  3
      Number of secondary orbitals               2
      Spin quantum number                      0.0
      State symmetry                             1
--
 
++    Orbital specifications:
      -----------------------
 
      Symmetry species                           1
                                                 a
      Frozen orbitals                            0
      Inactive orbitals                         10
      Active orbitals                            3
      RAS1 orbitals                              0
      RAS2 orbitals                              3
      RAS3 orbitals                              0
      Secondary orbitals                         2
      Deleted orbitals                           0
      Number of basis functions                 15
--
 
++    CI expansion specifications:
      ----------------------------
 
      Number of CSFs                             6
      Number of determinants                     6
      Number of root(s) required                 1
      Root chosen for geometry opt.              1
      CI root used                               1
         
      highest root included in the CI            1
      max. size of the explicit Hamiltonian      6
--
 
++    Optimization specifications:
      ----------------------------
 
      RASSCF algorithm: Conventional
      Maximum number of macro iterations       200
      Maximum number of SX iterations          100
      Threshold for RASSCF energy            0.100E-07
      Threshold for max MO rotation          0.100E+00
      Threshold for max BLB element          0.100E-03
      Level shift parameter                  0.500E+00
      Make Quasi-Newton update
--
 
      The MO-coefficients are taken from the file:
      /home/grierjones/DDCASPT2/ozone/ANO-RCC-MB/ozone_168.50/ozone_168.50.RasOrb                                                     
      Title: RASSCF average (pseudo-natural) orbitals                                      
 
      Total molecular charge    0.00
 
      ************************************************************************************************************************
      *                                                                                                                      *
      *                                            Wave function control section                                             *
      *                                                                                                                      *
      ************************************************************************************************************************
 
 
                                         RASSCF iterations: Energy and convergence statistics
                                         ----------------------------------------------------
 
      Iter CI   SX   CI       RASSCF       Energy    max ROT     max BLB   max BLB  Level Ln srch  Step   QN   Walltime
          iter iter root      energy       change     param      element    value   shift minimum  type update hh:mm:ss
 Nr of preliminary CI iterations:   1
        1   1    3    1  -224.28020129    0.00E+00   0.70E-03    9  15 1  0.18E-02*  0.24   0.00    SX    NO    0:00:00
        2   1    3    1  -224.28020542   -0.41E-05*  0.41E-03    7  14 1 -0.98E-03*  0.24   0.00    SX    NO    0:00:00
        3   1    3    1  -224.28020661   -0.12E-05*  0.25E-03    7  14 1 -0.59E-03*  0.24   0.00    SX    NO    0:00:00
        4   1    3    1  -224.28020701   -0.39E-06*  0.14E-03    7  14 1 -0.33E-03*  0.24   0.00    SX    NO    0:00:00
        5   1    3    1  -224.28020714   -0.13E-06*  0.13E-03    7  14 1 -0.20E-03*  0.24   1.93    LS   YES    0:00:00
        6   1    2    1  -224.28020720   -0.61E-07*  0.86E-04   10  14 1  0.77E-04   0.24   1.43    QN   YES    0:00:00
        7   1    2    1  -224.28020721   -0.16E-07* -0.39E-04   10  14 1  0.37E-04   0.24   1.11    QN   YES    0:00:00
        8   1    2    1  -224.28020722   -0.39E-08  -0.12E-03   10  14 1  0.25E-04   0.24   1.43    QN   YES    0:00:00
      Convergence after  8 iterations
 
  Dmat in MO in SXCTL bf call to SXHAM                                                                                    
  mat. size =     3x    3
 
        1.9817019540222871
        0.0000000000002755      1.7016050748180573
        0.0007749292436732      0.0000000000003338      0.3166929711596556
        9   1    2    1  -224.28020722   -0.22E-08  -0.12E-03    8  15 1  0.66E-04   0.24   1.43    QN   YES    0:00:00
 
      ************************************************************************************************************************
                                                      Wave function printout:
                       occupation of active orbitals, and spin coupling of open shells (u,d: Spin up or down)
      ************************************************************************************************************************
 
      Note: transformation to natural orbitals
      has been made, which may change the order of the CSFs.
 
      printout of CI-coefficients larger than  0.05 for root  1
      energy=    -224.280207
      conf/sym  111     Coeff  Weight
             1  220  -0.91742 0.84165
             3  202   0.38626 0.14920
             6  022   0.09565 0.00915
 
      Natural orbitals and occupation numbers for root  1
      sym 1:   1.981702   1.701605   0.316693
 
      ************************************************************************************************************************
      *                                                                                                                      *
      *                                                    Final results                                                     *
      *                                                                                                                      *
      ************************************************************************************************************************
 
 
++    Wave function specifications:
      -----------------------------
 
      Number of closed shell electrons          20
      Number of electrons in active shells       4
      Max number of holes in RAS1 space          0
      Max nr of electrons in RAS3 space          0
      Number of inactive orbitals               10
      Number of active orbitals                  3
      Number of secondary orbitals               2
      Spin quantum number                      0.0
      State symmetry                             1
--
 
++    Orbital specifications:
      -----------------------
 
      Symmetry species                           1
                                                 a
      Frozen orbitals                            0
      Inactive orbitals                         10
      Active orbitals                            3
      RAS1 orbitals                              0
      RAS2 orbitals                              3
      RAS3 orbitals                              0
      Secondary orbitals                         2
      Deleted orbitals                           0
      Number of basis functions                 15
--
 
++    CI expansion specifications:
      ----------------------------
 
      Number of CSFs                             6
      Number of determinants                     6
      Number of root(s) required                 1
      CI root used                               1
      highest root included in the CI            1
      Root passed to geometry opt.               1
--
 
++    Final optimization conditions:
      ------------------------------
 
      Average CI energy                            -224.28020722
      RASSCF energy for state  1                   -224.28020722
      Super-CI energy                                -0.00000000
      RASSCF energy change                           -0.00000000
      Max change in MO coefficients              -0.102E-03
      Max non-diagonal density matrix element    -0.115E-03
      Maximum BLB matrix element                  0.655E-04
      (orbital pair   8,  15 in symmetry   1)
      Norm of electronic gradient            0.459E-04
--
 
 
      Final state energy(ies):
      ------------------------
 
::    RASSCF root number  1 Total energy:   -224.28020722
 
++    Molecular orbitals:
      -------------------
 
      Pseudonatural active orbitals and approximate occupation numbers
 
 
 
 
      Molecular orbitals for symmetry species 1: a  
 
 
      Orbital                1         2         3         4         5         6         7         8         9        10
      Energy          -20.8585  -20.8533  -20.8532   -1.7140   -1.5020   -1.0959   -0.8402   -0.7966   -0.6738   -0.5147
      Occ. No.          2.0000    2.0000    2.0000    2.0000    2.0000    2.0000    2.0000    2.0000    2.0000    2.0000
 
    1 O1     1s         0.0383   -0.7071    0.7061   -0.0143    0.0145    0.0143   -0.0029   -0.0257    0.0037    0.0012
    2 O1     2s        -0.0004   -0.0001   -0.0001    0.3534   -0.5586    0.6362   -0.0474   -0.4175    0.0542    0.0025
    3 O1     2px       -0.0001    0.0001   -0.0001   -0.0114    0.0074    0.0263    0.3806   -0.1344   -0.7009    0.6227
    4 O1     2py        0.0001    0.0012   -0.0011   -0.1105    0.1013    0.1877   -0.0714   -0.4416    0.1354    0.0418
    5 O1     2pz       -0.0000   -0.0000    0.0000   -0.0000    0.0000   -0.0000    0.0000   -0.0000   -0.0000   -0.0000
    6 O2     1s         0.9985    0.0000   -0.0545   -0.0265   -0.0000   -0.0094   -0.0015   -0.0000    0.0000    0.0101
    7 O2     2s         0.0006    0.0000   -0.0010    0.6122    0.0000   -0.6201   -0.0316   -0.0000    0.0000    0.1251
    8 O2     2px        0.0006    0.0000   -0.0001    0.0387    0.0000    0.0276    0.6841    0.0000   -0.0000   -0.7711
    9 O2     2py       -0.0000    0.0006    0.0000    0.0000   -0.3188    0.0000   -0.0000    0.5519   -0.0837    0.0000
   10 O2     2pz       -0.0000   -0.0000    0.0000    0.0000   -0.0000   -0.0000   -0.0000   -0.0000    0.0000   -0.0000
   11 O3     1s         0.0383    0.7071    0.7061   -0.0143   -0.0145    0.0143   -0.0029    0.0257   -0.0037    0.0012
   12 O3     2s        -0.0004    0.0001   -0.0001    0.3534    0.5586    0.6362   -0.0474    0.4175   -0.0542    0.0025
   13 O3     2px       -0.0001   -0.0001   -0.0001   -0.0114   -0.0074    0.0263    0.3806    0.1344    0.7009    0.6227
   14 O3     2py       -0.0001    0.0012    0.0011    0.1105    0.1013   -0.1877    0.0714   -0.4416    0.1354   -0.0418
   15 O3     2pz        0.0000   -0.0000   -0.0000    0.0000   -0.0000   -0.0000    0.0000    0.0000    0.0000    0.0000
 
 
      Orbital               11        12        13        14        15
      Energy            0.0000    0.0000    0.0000    0.1105    0.5767
      Occ. No.          1.9817    1.7016    0.3167    0.0000    0.0000
 
    1 O1     1s         0.0000    0.0000    0.0000   -0.0166   -0.0561
    2 O1     2s         0.0000   -0.0000    0.0000   -0.2442   -0.5113
    3 O1     2px        0.0000    0.0000   -0.0000   -0.0001    0.0833
    4 O1     2py       -0.0000   -0.0000    0.0000    0.7554    0.6737
    5 O1     2pz        0.2986   -0.7161    0.6670   -0.0000    0.0000
    6 O2     1s        -0.0000   -0.0000   -0.0000    0.0827    0.0000
    7 O2     2s        -0.0000   -0.0000   -0.0000    0.8899    0.0000
    8 O2     2px       -0.0000    0.0000   -0.0000    0.1856    0.0000
    9 O2     2py       -0.0000   -0.0000   -0.0000   -0.0000    1.1272
   10 O2     2pz        0.7868   -0.0000   -0.6898    0.0000    0.0000
   11 O3     1s         0.0000    0.0000   -0.0000   -0.0166    0.0561
   12 O3     2s         0.0000    0.0000   -0.0000   -0.2442    0.5113
   13 O3     2px       -0.0000   -0.0000   -0.0000   -0.0001   -0.0833
   14 O3     2py       -0.0000    0.0000    0.0000   -0.7554    0.6737
   15 O3     2pz        0.2986    0.7161    0.6670    0.0000    0.0000
--
 
      Von Neumann Entropy (Root  1) =  0.63248
 

      Mulliken population analysis for root number:  1
      -----------------------------------------------
 
 
++    Molecular charges:
      ------------------
 
      Mulliken charges per centre and basis function type
      ---------------------------------------------------
 
                O1      O2      O3    
      1s       2.0001  2.0001  2.0001
      2s       1.9129  1.6010  1.9129
      2px      1.9947  1.9622  1.9947
      2pz      1.2438  1.5124  1.2438
      2py      0.8019  1.0174  0.8019
      Total    7.9535  8.0930  7.9535
 
      N-E      0.0465 -0.0930  0.0465
 
      Total electronic charge=   24.000000
 
      Total            charge=   -0.000000
--
 
 

      Expectation values of various properties for root number:  1
      -----------------------------------------------------------
 
 
++    Molecular properties:
      ---------------------
 
      Charge (e):
                      =   -0.0000
      Dipole Moment (Debye):
      Origin of the operator (Ang)=    0.0000    0.0000    0.0000
                   X=  2.7873E-01               Y= -2.6245E-11               Z=  3.7554E-13           Total=  2.7873E-01
      Quadrupole Moment (Debye*Ang):
      Origin of the operator (Ang)=    0.0835    0.0000    0.0000
                  XX= -1.7438E+01              XY= -2.8262E-12              XZ= -1.8779E-13              YY= -1.6694E+01
                  YZ=  9.5658E-13              ZZ= -1.5675E+01
      In traceless form (Debye*Ang)
                  XX= -1.2540E+00              XY= -4.2393E-12              XZ= -2.8169E-13              YY= -1.3719E-01
                  YZ=  1.4349E-12              ZZ=  1.3912E+00
--
 

      LoProp population analysis for root number:  1
      -----------------------------------------------
 
 
++    LoProp analysis:
      ----------------
 
 
 
  Input file to MOLDEN was generated!
 
 
++    Static properties:
      ------------------
 
 
      LoProp Charges per center
 

                   O1       O2       O3    
      Nuclear      8.0000   8.0000   8.0000
      Electronic  -7.9916  -8.0168  -7.9916
 
      Total        0.0084  -0.0168   0.0084
--
 
 
      Natural Bond Order analysis for root number:  1
 
++    Natural Bond Order analysis
      ---------------------------
      Based on LoProp computed density
      -------------------------------------------------------------------------------------
      Atom A       Atom B       Bond Order | Atom A       Atom B       Bond Order
        O1           O2             1.962  |   O2           O3             1.962
      -------------------------------------------------------------------------------------
      NBO located     12.000 core electrons.
      NBO located      3.968 lone pair electrons.
      NBO located      7.849 electrons involved in    2 bonds.
      The remaining    0.183 electrons are to be considered as diffuse
--
 
--
 
 
  Input file to MOLDEN was generated!
 
      Average orbitals are written to the RASORB file
      Natural orbitals for root   1 are written to the RASORB.1 file
      Spin density orbitals for root   1 are written to the SPDORB.1 file
 
forrtl: warning (525): IEEE_DIVIDE_BY_ZERO is signaling
forrtl: warning (526): IEEE_INVALID is signaling
forrtl: warning (528): IEEE_UNDERFLOW is signaling
--- Stop Module: rasscf at Sat Jan 25 14:09:59 2025 /rc=_RC_ALL_IS_WELL_ ---
*** files: ozone_168.75.LprOrb ozone_168.75.rasscf.molden ozone_168.75.LoProp.molden ozone_168.75.RasOrb ozone_168.75.RasOrb.1 ozone_168.75.rasscf.h5 ozone_168.75.SpdOrb.1 xmldump
    saved to directory /home/grierjones/DDCASPT2/ozone/ANO-RCC-MB/ozone_168.75

>>> COPY /tmp/ozone_168.75/ozone_168.75.rasscf.h5 /home/grierjones/DDCASPT2/ozone/ANO-RCC-MB/ozone_168.75/

>>> COPY /tmp/ozone_168.75/GMJ_Fock_MO.csv /home/grierjones/DDCASPT2/ozone/ANO-RCC-MB/ozone_168.75/ozone_168.75.GMJ_Fock_MO.csv

>>> COPY /tmp/ozone_168.75/GMJ_PT2_Fock_MO.csv /home/grierjones/DDCASPT2/ozone/ANO-RCC-MB/ozone_168.75/ozone_168.75.GMJ_PT2_Fock_MO.csv

*** symbolic link created: INPORB -> ozone_168.75.RasOrb
--- Start Module: motra at Sat Jan 25 14:09:59 2025 ---
 
()()()()()()()()()()()()()()()()()()()()()()()()()()()()()()()()()()()()()()()()()()()()()()()()()()

                                               &MOTRA

                                   only a single process is used
                       available to each process: 2.0 GB of memory, 1 thread?
()()()()()()()()()()()()()()()()()()()()()()()()()()()()()()()()()()()()()()()()()()()()()()()()()()
 
 
      *** WARNING: Default frozen orbitals is overwritten by user input.
      *** Default values:   3
 
      Header of the integral files:
      
       Integrals generated by seward 4.2.0  , Sat Jan 25 14:09:58 2025
 
 
      Header of MO coefficients source file:
      * RASSCF average (pseudo-natural) orbitals                                      
 
 
      Cartesian coordinates in Angstrom:
      -----------------------------------------------------
      No.  Label        X            Y            Z        
      -----------------------------------------------------
       1   O1         0.12526600   1.27184600   0.00000000
       2   O2         0.00000000   0.00000000   0.00000000
       3   O3         0.12526600  -1.27184600   0.00000000
      -----------------------------------------------------
      Nuclear repulsion energy =   66.31478352
 
      Orbital specifications:
      -----------------------
 
      Symmetry species:              1
      Number of basis functions:    15
      Frozen orbitals:               0
      Deleted orbitals:              0
      Number of orbitals used:      15

       SYMMETRY  BASIS FUNCTIONS       ORBITALS      INTEGRALS   CPU(SEC)  I/O(SEC)
 
        1 1 1 1   15  15  15  15    15  15  15  15        7260       0.00      0.00

       TOTAL CPU TIME(SEC)    0.00TOTAL I/O TIME(SEC)    0.01
 
--- Stop Module: motra at Sat Jan 25 14:09:59 2025 /rc=_RC_ALL_IS_WELL_ ---
*** files: xmldump
    saved to directory /home/grierjones/DDCASPT2/ozone/ANO-RCC-MB/ozone_168.75

>>> COPY /tmp/ozone_168.75/GMJ_one_int_indx.csv /home/grierjones/DDCASPT2/ozone/ANO-RCC-MB/ozone_168.75/ozone_168.75.GMJ_one_int_indx.csv

>>> COPY /tmp/ozone_168.75/GMJ_one_int.csv /home/grierjones/DDCASPT2/ozone/ANO-RCC-MB/ozone_168.75/ozone_168.75.GMJ_one_int.csv

>>> COPY /tmp/ozone_168.75/GMJ_two_int_indx.csv /home/grierjones/DDCASPT2/ozone/ANO-RCC-MB/ozone_168.75/ozone_168.75.GMJ_two_int_indx.csv

>>> COPY /tmp/ozone_168.75/GMJ_two_int.csv /home/grierjones/DDCASPT2/ozone/ANO-RCC-MB/ozone_168.75/ozone_168.75.GMJ_two_int.csv

*** symbolic link created: INPORB -> ozone_168.75.RasOrb
--- Start Module: caspt2 at Sat Jan 25 14:09:59 2025 ---
 
()()()()()()()()()()()()()()()()()()()()()()()()()()()()()()()()()()()()()()()()()()()()()()()()()()

                                              &CASPT2

                                   only a single process is used
                       available to each process: 2.0 GB of memory, 1 thread?
()()()()()()()()()()()()()()()()()()()()()()()()()()()()()()()()()()()()()()()()()()()()()()()()()()
 
 Cholesky algorithm in CASPT2 =    1
 
 ###############################################################################
 ###############################################################################
 ###                                                                         ###
 ###                                                                         ###
 ###    User changed nr of frozen orbitals.                                  ###
 ###                                                                         ###
 ###                                                                         ###
 ###############################################################################
 ###############################################################################
 
++    Wave function specifications:
      -----------------------------
 
      Number of closed shell electrons          20
      Number of electrons in active shells       4
      Max number of holes in RAS1 space          0
      Max number of electrons in RAS3 space      0
      Number of inactive orbitals               10
      Number of active orbitals                  3
      Number of secondary orbitals               2
      Spin quantum number                      0.0
      State symmetry                             1
      Number of CSFs                             6
      Number of root(s) available                1
      Root passed to geometry opt.               1
      A file JOBMIX will be created.
      This is a CASSCF or RASSCF reference function
--
 
++    Orbital specifications:
      -----------------------
 
      Symmetry species                           1
                                                 a
      Frozen orbitals                            0
      Inactive orbitals                         10
      Active orbitals                            3
      Secondary orbitals                         2
      Deleted orbitals                           0
      Number of basis functions                 15
--
 
      Type of Fock operator: STANDARD
      Type of 0-order Hamiltonian: STANDARD WITH DEFAULT IPEA
        "IP-EA" denominator shift =      0.25
      The input orbitals and the CI vector will be transformed.
 
--------------------------------------------------------------------------------
 Estimated memory requirements:
  POLY3 :                   250202
  RHS:                      251368
  SIGMA :                   251440
  PRPCTL:                        0
 Available workspace:    230399382
 
++ CASPT2 computation for group   1
 
********************************************************************************
 Multi-State initialization phase begins for group   1
--------------------------------------------------------------------------------
********************************************************************************
 Compute H0 matrices for state    1
--------------------------------------------------------------------------------
--------------------------------------------------------------------------------
 H0 matrices have been computed.
 
********************************************************************************
  CASPT2 EQUATION SOLUTION
--------------------------------------------------------------------------------
 
  Total nr of CASPT2 parameters:
   Before reduction:        2100
   After  reduction:        1232
 
 The contributions to the second order correlation energy in atomic units.
-----------------------------------------------------------------------------------------------------------------------------
  IT.      VJTU        VJTI        ATVX        AIVX        VJAI        BVAT        BJAT        BJAI        TOTAL       RNORM  
-----------------------------------------------------------------------------------------------------------------------------
-------------------------------------------------------------------------------------------------------------------
 
  FINAL CASPT2 RESULT:
 
  Correlation energy /Case, /Symm, and sums:
 VJTU     -0.00000000 -0.00000000
 VJTIP    -0.00121539 -0.00121539
 VJTIM     0.00000000  0.00000000
 ATVX     -0.00000000 -0.00000000
 AIVX     -0.05280514 -0.05280514
 VJAIP    -0.00000000 -0.00000000
 VJAIM    -0.00000000 -0.00000000
 BVATP    -0.00060846 -0.00060846
 BVATM    -0.00000429 -0.00000429
 BJATP    -0.00000000 -0.00000000
 BJATM    -0.00000000 -0.00000000
 BJAIP    -0.03604865 -0.03604865
 BJAIM    -0.00650351 -0.00650351
 Summed:  -0.09718544 -0.09718544
 
      Reference energy:        -224.2802072182
      E2 (Non-variational):      -0.0971854405
      E2 (Variational):          -0.0971854405
      Total energy:            -224.3773926587
      Residual norm:              0.0000000001
      Reference weight:           0.95281
 
      Contributions to the CASPT2 correlation energy
      Active & Virtual Only:         -0.0006127500
      One Inactive Excited:          -0.0528051389
      Two Inactive Excited:          -0.0437675516
 
 
++ Denominators, etc.
----------------------------------------------------------------------------------------------------
 Report on small energy denominators, large coefficients, and large energy contributions.
CASE  SYMM ACTIVE-MIX  NON-ACTIVE INDICES          DENOMINATOR     RHS VALUE       COEFFICIENT     CONTRIBUTION
AIVX     1  Mu1.0005  In1.004 Se1.014               2.55482973     -0.08496895      0.03325812     -0.00282591
AIVX     1  Mu1.0003  In1.005 Se1.014               2.01025209     -0.05494621      0.02733300     -0.00150184
AIVX     1  Mu1.0004  In1.006 Se1.014               1.78256880     -0.07464126      0.04187274     -0.00312543
AIVX     1  Mu1.0005  In1.006 Se1.014               1.93672591      0.07361387     -0.03800934     -0.00279801
AIVX     1  Mu1.0002  In1.008 Se1.014               1.21194540      0.11775751     -0.09716404     -0.01144180
AIVX     1  Mu1.0003  In1.008 Se1.014               1.30481327      0.06982051     -0.05350996     -0.00373609
AIVX     1  Mu1.0007  In1.008 Se1.014               1.90745843     -0.05257828      0.02756457     -0.00144930
AIVX     1  Mu1.0002  In1.009 Se1.014               1.08917888     -0.03415846      0.03136166     -0.00107127
AIVX     1  Mu1.0004  In1.005 Se1.015               2.65483487     -0.07226892      0.02722158     -0.00196727
AIVX     1  Mu1.0001  In1.008 Se1.015               1.31159986      0.03585065     -0.02733486     -0.00097997
AIVX     1  Mu1.0004  In1.008 Se1.015               1.94939605      0.12654268     -0.06491366     -0.00821435
AIVX     1  Mu1.0005  In1.008 Se1.015               2.10355315     -0.08661997      0.04117783     -0.00356682
BJAIP    1  Se1.014 In1.004 Se1.015 In1.005         3.90313232     -0.10021816      0.02567635     -0.00257324
BJAIP    1  Se1.014 In1.006 Se1.014 In1.006         2.41276243      0.08163319     -0.03383394     -0.00276197
BJAIP    1  Se1.014 In1.004 Se1.015 In1.008         3.19769350      0.08085898     -0.02528668     -0.00204466
BJAIP    1  Se1.014 In1.006 Se1.015 In1.008         2.57958967     -0.09674284      0.03750323     -0.00362817
BJAIP    1  Se1.014 In1.008 Se1.014 In1.008         1.81408412      0.10785581     -0.05945469     -0.00641253
BJAIP    1  Se1.015 In1.008 Se1.015 In1.008         2.74641692      0.11197707     -0.04077211     -0.00456554
BJAIP    1  Se1.014 In1.010 Se1.014 In1.010         1.25034117      0.03155656     -0.02523839     -0.00079644
BJAIM    1  Se1.014 In1.006 Se1.014 In1.008         2.57958967     -0.09948533      0.03856641     -0.00383679
--
 
   (Skipping property calculation,
    use PROP keyword to activate)
--
 
  Total CASPT2 energies:
::    CASPT2 Root  1     Total energy:   -224.37739266
 
  A NEW JOBIPH FILE NAMED 'JOBMIX' IS PREPARED.
********************************************************************************
forrtl: warning (528): IEEE_UNDERFLOW is signaling
--- Stop Module: caspt2 at Sat Jan 25 14:09:59 2025 /rc=_RC_ALL_IS_WELL_ ---
*** files: xmldump
    saved to directory /home/grierjones/DDCASPT2/ozone/ANO-RCC-MB/ozone_168.75

>>> EXPORT i = B

>>> EXPORT j = P

>>> IF (-FILE GMJ_e2_${i}_${j}.csv)

>>> COPY /tmp/ozone_168.75/GMJ_RHS_B_P.csv /home/grierjones/DDCASPT2/ozone/ANO-RCC-MB/ozone_168.75/GMJ_RHS_B_P.csv

>>> COPY /tmp/ozone_168.75/GMJ_IVECW_B_P.csv /home/grierjones/DDCASPT2/ozone/ANO-RCC-MB/ozone_168.75/GMJ_IVECW_B_P.csv

>>> COPY /tmp/ozone_168.75/GMJ_IVECX_B_P.csv /home/grierjones/DDCASPT2/ozone/ANO-RCC-MB/ozone_168.75/GMJ_IVECX_B_P.csv

>>> COPY /tmp/ozone_168.75/GMJ_IVECC2_B_P.csv /home/grierjones/DDCASPT2/ozone/ANO-RCC-MB/ozone_168.75/GMJ_IVECC2_B_P.csv

>>> COPY /tmp/ozone_168.75/GMJ_e2_B_P.csv /home/grierjones/DDCASPT2/ozone/ANO-RCC-MB/ozone_168.75/GMJ_e2_B_P.csv

>>> END FOREACH

>>> EXPORT j = M

>>> IF (-FILE GMJ_e2_${i}_${j}.csv)
(Skipped)

>>> END FOREACH

>>> END FOREACH

>>> EXPORT i = E

>>> EXPORT j = P

>>> IF (-FILE GMJ_e2_${i}_${j}.csv)

>>> COPY /tmp/ozone_168.75/GMJ_RHS_E_P.csv /home/grierjones/DDCASPT2/ozone/ANO-RCC-MB/ozone_168.75/GMJ_RHS_E_P.csv

>>> COPY /tmp/ozone_168.75/GMJ_IVECW_E_P.csv /home/grierjones/DDCASPT2/ozone/ANO-RCC-MB/ozone_168.75/GMJ_IVECW_E_P.csv

>>> COPY /tmp/ozone_168.75/GMJ_IVECX_E_P.csv /home/grierjones/DDCASPT2/ozone/ANO-RCC-MB/ozone_168.75/GMJ_IVECX_E_P.csv

>>> COPY /tmp/ozone_168.75/GMJ_IVECC2_E_P.csv /home/grierjones/DDCASPT2/ozone/ANO-RCC-MB/ozone_168.75/GMJ_IVECC2_E_P.csv

>>> COPY /tmp/ozone_168.75/GMJ_e2_E_P.csv /home/grierjones/DDCASPT2/ozone/ANO-RCC-MB/ozone_168.75/GMJ_e2_E_P.csv

>>> END FOREACH

>>> EXPORT j = M

>>> IF (-FILE GMJ_e2_${i}_${j}.csv)

>>> COPY /tmp/ozone_168.75/GMJ_RHS_E_M.csv /home/grierjones/DDCASPT2/ozone/ANO-RCC-MB/ozone_168.75/GMJ_RHS_E_M.csv

>>> COPY /tmp/ozone_168.75/GMJ_IVECW_E_M.csv /home/grierjones/DDCASPT2/ozone/ANO-RCC-MB/ozone_168.75/GMJ_IVECW_E_M.csv

>>> COPY /tmp/ozone_168.75/GMJ_IVECX_E_M.csv /home/grierjones/DDCASPT2/ozone/ANO-RCC-MB/ozone_168.75/GMJ_IVECX_E_M.csv

>>> COPY /tmp/ozone_168.75/GMJ_IVECC2_E_M.csv /home/grierjones/DDCASPT2/ozone/ANO-RCC-MB/ozone_168.75/GMJ_IVECC2_E_M.csv

>>> COPY /tmp/ozone_168.75/GMJ_e2_E_M.csv /home/grierjones/DDCASPT2/ozone/ANO-RCC-MB/ozone_168.75/GMJ_e2_E_M.csv

>>> END FOREACH

>>> END FOREACH

>>> EXPORT i = F

>>> EXPORT j = P

>>> IF (-FILE GMJ_e2_${i}_${j}.csv)

>>> COPY /tmp/ozone_168.75/GMJ_RHS_F_P.csv /home/grierjones/DDCASPT2/ozone/ANO-RCC-MB/ozone_168.75/GMJ_RHS_F_P.csv

>>> COPY /tmp/ozone_168.75/GMJ_IVECW_F_P.csv /home/grierjones/DDCASPT2/ozone/ANO-RCC-MB/ozone_168.75/GMJ_IVECW_F_P.csv

>>> COPY /tmp/ozone_168.75/GMJ_IVECX_F_P.csv /home/grierjones/DDCASPT2/ozone/ANO-RCC-MB/ozone_168.75/GMJ_IVECX_F_P.csv

>>> COPY /tmp/ozone_168.75/GMJ_IVECC2_F_P.csv /home/grierjones/DDCASPT2/ozone/ANO-RCC-MB/ozone_168.75/GMJ_IVECC2_F_P.csv

>>> COPY /tmp/ozone_168.75/GMJ_e2_F_P.csv /home/grierjones/DDCASPT2/ozone/ANO-RCC-MB/ozone_168.75/GMJ_e2_F_P.csv

>>> END FOREACH

>>> EXPORT j = M

>>> IF (-FILE GMJ_e2_${i}_${j}.csv)

>>> COPY /tmp/ozone_168.75/GMJ_RHS_F_M.csv /home/grierjones/DDCASPT2/ozone/ANO-RCC-MB/ozone_168.75/GMJ_RHS_F_M.csv

>>> COPY /tmp/ozone_168.75/GMJ_IVECW_F_M.csv /home/grierjones/DDCASPT2/ozone/ANO-RCC-MB/ozone_168.75/GMJ_IVECW_F_M.csv

>>> COPY /tmp/ozone_168.75/GMJ_IVECX_F_M.csv /home/grierjones/DDCASPT2/ozone/ANO-RCC-MB/ozone_168.75/GMJ_IVECX_F_M.csv

>>> COPY /tmp/ozone_168.75/GMJ_IVECC2_F_M.csv /home/grierjones/DDCASPT2/ozone/ANO-RCC-MB/ozone_168.75/GMJ_IVECC2_F_M.csv

>>> COPY /tmp/ozone_168.75/GMJ_e2_F_M.csv /home/grierjones/DDCASPT2/ozone/ANO-RCC-MB/ozone_168.75/GMJ_e2_F_M.csv

>>> END FOREACH

>>> END FOREACH

>>> EXPORT i = G

>>> EXPORT j = P

>>> IF (-FILE GMJ_e2_${i}_${j}.csv)

>>> COPY /tmp/ozone_168.75/GMJ_RHS_G_P.csv /home/grierjones/DDCASPT2/ozone/ANO-RCC-MB/ozone_168.75/GMJ_RHS_G_P.csv

>>> COPY /tmp/ozone_168.75/GMJ_IVECW_G_P.csv /home/grierjones/DDCASPT2/ozone/ANO-RCC-MB/ozone_168.75/GMJ_IVECW_G_P.csv

>>> COPY /tmp/ozone_168.75/GMJ_IVECX_G_P.csv /home/grierjones/DDCASPT2/ozone/ANO-RCC-MB/ozone_168.75/GMJ_IVECX_G_P.csv

>>> COPY /tmp/ozone_168.75/GMJ_IVECC2_G_P.csv /home/grierjones/DDCASPT2/ozone/ANO-RCC-MB/ozone_168.75/GMJ_IVECC2_G_P.csv

>>> COPY /tmp/ozone_168.75/GMJ_e2_G_P.csv /home/grierjones/DDCASPT2/ozone/ANO-RCC-MB/ozone_168.75/GMJ_e2_G_P.csv

>>> END FOREACH

>>> EXPORT j = M

>>> IF (-FILE GMJ_e2_${i}_${j}.csv)

>>> COPY /tmp/ozone_168.75/GMJ_RHS_G_M.csv /home/grierjones/DDCASPT2/ozone/ANO-RCC-MB/ozone_168.75/GMJ_RHS_G_M.csv

>>> COPY /tmp/ozone_168.75/GMJ_IVECW_G_M.csv /home/grierjones/DDCASPT2/ozone/ANO-RCC-MB/ozone_168.75/GMJ_IVECW_G_M.csv

>>> COPY /tmp/ozone_168.75/GMJ_IVECX_G_M.csv /home/grierjones/DDCASPT2/ozone/ANO-RCC-MB/ozone_168.75/GMJ_IVECX_G_M.csv

>>> COPY /tmp/ozone_168.75/GMJ_IVECC2_G_M.csv /home/grierjones/DDCASPT2/ozone/ANO-RCC-MB/ozone_168.75/GMJ_IVECC2_G_M.csv

>>> COPY /tmp/ozone_168.75/GMJ_e2_G_M.csv /home/grierjones/DDCASPT2/ozone/ANO-RCC-MB/ozone_168.75/GMJ_e2_G_M.csv

>>> END FOREACH

>>> END FOREACH

>>> EXPORT i = H

>>> EXPORT j = P

>>> IF (-FILE GMJ_e2_${i}_${j}.csv)

>>> COPY /tmp/ozone_168.75/GMJ_RHS_H_P.csv /home/grierjones/DDCASPT2/ozone/ANO-RCC-MB/ozone_168.75/GMJ_RHS_H_P.csv

>>> COPY /tmp/ozone_168.75/GMJ_IVECW_H_P.csv /home/grierjones/DDCASPT2/ozone/ANO-RCC-MB/ozone_168.75/GMJ_IVECW_H_P.csv

>>> COPY /tmp/ozone_168.75/GMJ_IVECX_H_P.csv /home/grierjones/DDCASPT2/ozone/ANO-RCC-MB/ozone_168.75/GMJ_IVECX_H_P.csv

>>> COPY /tmp/ozone_168.75/GMJ_IVECC2_H_P.csv /home/grierjones/DDCASPT2/ozone/ANO-RCC-MB/ozone_168.75/GMJ_IVECC2_H_P.csv

>>> COPY /tmp/ozone_168.75/GMJ_e2_H_P.csv /home/grierjones/DDCASPT2/ozone/ANO-RCC-MB/ozone_168.75/GMJ_e2_H_P.csv

>>> END FOREACH

>>> EXPORT j = M

>>> IF (-FILE GMJ_e2_${i}_${j}.csv)

>>> COPY /tmp/ozone_168.75/GMJ_RHS_H_M.csv /home/grierjones/DDCASPT2/ozone/ANO-RCC-MB/ozone_168.75/GMJ_RHS_H_M.csv

>>> COPY /tmp/ozone_168.75/GMJ_IVECW_H_M.csv /home/grierjones/DDCASPT2/ozone/ANO-RCC-MB/ozone_168.75/GMJ_IVECW_H_M.csv

>>> COPY /tmp/ozone_168.75/GMJ_IVECX_H_M.csv /home/grierjones/DDCASPT2/ozone/ANO-RCC-MB/ozone_168.75/GMJ_IVECX_H_M.csv

>>> COPY /tmp/ozone_168.75/GMJ_IVECC2_H_M.csv /home/grierjones/DDCASPT2/ozone/ANO-RCC-MB/ozone_168.75/GMJ_IVECC2_H_M.csv

>>> COPY /tmp/ozone_168.75/GMJ_e2_H_M.csv /home/grierjones/DDCASPT2/ozone/ANO-RCC-MB/ozone_168.75/GMJ_e2_H_M.csv

>>> END FOREACH

>>> END FOREACH

>>> EXPORT i = A

>>> IF (-FILE GMJ_e2_$i.csv)

>>> COPY /tmp/ozone_168.75/GMJ_RHS_A.csv /home/grierjones/DDCASPT2/ozone/ANO-RCC-MB/ozone_168.75/GMJ_RHS_A.csv

>>> COPY /tmp/ozone_168.75/GMJ_IVECW_A.csv /home/grierjones/DDCASPT2/ozone/ANO-RCC-MB/ozone_168.75/GMJ_IVECW_A.csv

>>> COPY /tmp/ozone_168.75/GMJ_IVECX_A.csv /home/grierjones/DDCASPT2/ozone/ANO-RCC-MB/ozone_168.75/GMJ_IVECX_A.csv

>>> COPY /tmp/ozone_168.75/GMJ_IVECC2_A.csv /home/grierjones/DDCASPT2/ozone/ANO-RCC-MB/ozone_168.75/GMJ_IVECC2_A.csv

>>> COPY /tmp/ozone_168.75/GMJ_e2_A.csv /home/grierjones/DDCASPT2/ozone/ANO-RCC-MB/ozone_168.75/GMJ_e2_A.csv

>>> END FOREACH

>>> EXPORT i = C

>>> IF (-FILE GMJ_e2_$i.csv)

>>> COPY /tmp/ozone_168.75/GMJ_RHS_C.csv /home/grierjones/DDCASPT2/ozone/ANO-RCC-MB/ozone_168.75/GMJ_RHS_C.csv

>>> COPY /tmp/ozone_168.75/GMJ_IVECW_C.csv /home/grierjones/DDCASPT2/ozone/ANO-RCC-MB/ozone_168.75/GMJ_IVECW_C.csv

>>> COPY /tmp/ozone_168.75/GMJ_IVECX_C.csv /home/grierjones/DDCASPT2/ozone/ANO-RCC-MB/ozone_168.75/GMJ_IVECX_C.csv

>>> COPY /tmp/ozone_168.75/GMJ_IVECC2_C.csv /home/grierjones/DDCASPT2/ozone/ANO-RCC-MB/ozone_168.75/GMJ_IVECC2_C.csv

>>> COPY /tmp/ozone_168.75/GMJ_e2_C.csv /home/grierjones/DDCASPT2/ozone/ANO-RCC-MB/ozone_168.75/GMJ_e2_C.csv

>>> END FOREACH

>>> EXPORT i = D

>>> IF (-FILE GMJ_e2_$i.csv)

>>> COPY /tmp/ozone_168.75/GMJ_RHS_D.csv /home/grierjones/DDCASPT2/ozone/ANO-RCC-MB/ozone_168.75/GMJ_RHS_D.csv

>>> COPY /tmp/ozone_168.75/GMJ_IVECW_D.csv /home/grierjones/DDCASPT2/ozone/ANO-RCC-MB/ozone_168.75/GMJ_IVECW_D.csv

>>> COPY /tmp/ozone_168.75/GMJ_IVECX_D.csv /home/grierjones/DDCASPT2/ozone/ANO-RCC-MB/ozone_168.75/GMJ_IVECX_D.csv

>>> COPY /tmp/ozone_168.75/GMJ_IVECC2_D.csv /home/grierjones/DDCASPT2/ozone/ANO-RCC-MB/ozone_168.75/GMJ_IVECC2_D.csv

>>> COPY /tmp/ozone_168.75/GMJ_e2_D.csv /home/grierjones/DDCASPT2/ozone/ANO-RCC-MB/ozone_168.75/GMJ_e2_D.csv

>>> END FOREACH

.########################.
.# Non-zero return code #.
.########################.

    Timing: Wall=1.08 User=0.82 System=0.26
********************************************
*** WorkDir at /tmp/ozone_168.75 cleaned ***
********************************************
