[Molden Format]
[N_Atoms]
                     2
[Atoms] (AU)
O1          1      8           0.00000000      0.00000000      0.00000000
O2          2      8           0.00000000      0.00000000      3.40150702
[Charge] (Mulliken)
 -4.841638201469323E-011
  4.840750023049623E-011
[GTO] (AU)
   1
   s  14
  1.053749500E+05  1.238600013E-04
  1.567924000E+04  5.120100053E-04
  3.534544700E+03  2.152910022E-03
  9.873651600E+02  8.528440089E-03
  3.159787500E+02  3.018049031E-02
  1.116542800E+02  9.099702095E-02
  4.269945100E+01  2.177936423E-01
  1.739559600E+01  3.686245738E-01
  7.438309000E+00  3.366707335E-01
  3.222862000E+00  9.657630101E-02
  1.253877000E+00  2.144520022E-03
  4.951550000E-01  1.194350012E-03
  1.916650000E-01  5.390200056E-04
  6.708300000E-02  2.103400022E-04
   s  14
  1.053749500E+05 -2.815000008E-05
  1.567924000E+04 -1.163000003E-04
  3.534544700E+03 -4.909200013E-04
  9.873651600E+02 -1.946160005E-03
  3.159787500E+02 -7.005300019E-03
  1.116542800E+02 -2.167814006E-02
  4.269945100E+01 -5.641213015E-02
  1.739559600E+01 -1.127053003E-01
  7.438309000E+00 -1.589119704E-01
  3.222862000E+00 -3.355083009E-02
  1.253877000E+00  3.531902810E-01
  4.951550000E-01  5.534199315E-01
  1.916650000E-01  2.301839106E-01
  6.708300000E-02  1.127267003E-02
   p   9
  2.000000000E+02  9.173000030E-04
  4.653336700E+01  7.377140024E-03
  1.462180900E+01  3.483515011E-02
  5.313064000E+00  1.144397004E-01
  2.102525000E+00  2.554966408E-01
  8.502230000E-01  3.722557412E-01
  3.375970000E-01  3.323314911E-01
  1.288920000E-01  1.400847905E-01
  4.511200000E-02  2.395784008E-02
 
   2
   s  14
  1.053749500E+05  1.238600013E-04
  1.567924000E+04  5.120100053E-04
  3.534544700E+03  2.152910022E-03
  9.873651600E+02  8.528440089E-03
  3.159787500E+02  3.018049031E-02
  1.116542800E+02  9.099702095E-02
  4.269945100E+01  2.177936423E-01
  1.739559600E+01  3.686245738E-01
  7.438309000E+00  3.366707335E-01
  3.222862000E+00  9.657630101E-02
  1.253877000E+00  2.144520022E-03
  4.951550000E-01  1.194350012E-03
  1.916650000E-01  5.390200056E-04
  6.708300000E-02  2.103400022E-04
   s  14
  1.053749500E+05 -2.815000008E-05
  1.567924000E+04 -1.163000003E-04
  3.534544700E+03 -4.909200013E-04
  9.873651600E+02 -1.946160005E-03
  3.159787500E+02 -7.005300019E-03
  1.116542800E+02 -2.167814006E-02
  4.269945100E+01 -5.641213015E-02
  1.739559600E+01 -1.127053003E-01
  7.438309000E+00 -1.589119704E-01
  3.222862000E+00 -3.355083009E-02
  1.253877000E+00  3.531902810E-01
  4.951550000E-01  5.534199315E-01
  1.916650000E-01  2.301839106E-01
  6.708300000E-02  1.127267003E-02
   p   9
  2.000000000E+02  9.173000030E-04
  4.653336700E+01  7.377140024E-03
  1.462180900E+01  3.483515011E-02
  5.313064000E+00  1.144397004E-01
  2.102525000E+00  2.554966408E-01
  8.502230000E-01  3.722557412E-01
  3.375970000E-01  3.323314911E-01
  1.288920000E-01  1.400847905E-01
  4.511200000E-02  2.395784008E-02
 
[MO]
Sym=     1a  
Ene=   -20.8130
Spin= Alpha
Occup=    1.00000
   1         0.70709166
   2        -0.00045149
   3         0.00000000
   4         0.00000000
   5         0.00033736
   6         0.70709153
   7        -0.00045149
   8        -0.00000000
   9        -0.00000000
  10        -0.00033736
Sym=     1a  
Ene=   -20.8130
Spin= Beta
Occup=    1.00000
   1         0.70709166
   2        -0.00045149
   3         0.00000000
   4         0.00000000
   5         0.00033736
   6         0.70709153
   7        -0.00045149
   8        -0.00000000
   9        -0.00000000
  10        -0.00033736
Sym=     2a  
Ene=   -20.8130
Spin= Alpha
Occup=    1.00000
   1        -0.70712430
   2         0.00021355
   3        -0.00000000
   4        -0.00000000
   5        -0.00043766
   6         0.70712443
   7        -0.00021355
   8        -0.00000000
   9        -0.00000000
  10        -0.00043766
Sym=     2a  
Ene=   -20.8130
Spin= Beta
Occup=    1.00000
   1        -0.70712430
   2         0.00021355
   3        -0.00000000
   4        -0.00000000
   5        -0.00043766
   6         0.70712443
   7        -0.00021355
   8        -0.00000000
   9        -0.00000000
  10        -0.00043766
Sym=     3a  
Ene=    -1.3899
Spin= Alpha
Occup=    1.00000
   1        -0.00384701
   2         0.66191105
   3        -0.00000000
   4        -0.00000000
   5         0.05808782
   6        -0.00384701
   7         0.66191105
   8        -0.00000000
   9         0.00000000
  10        -0.05808782
Sym=     3a  
Ene=    -1.3899
Spin= Beta
Occup=    1.00000
   1        -0.00384701
   2         0.66191105
   3        -0.00000000
   4        -0.00000000
   5         0.05808782
   6        -0.00384701
   7         0.66191105
   8        -0.00000000
   9         0.00000000
  10        -0.05808782
Sym=     4a  
Ene=    -1.2501
Spin= Alpha
Occup=    1.00000
   1        -0.00312340
   2        -0.73325845
   3        -0.00000000
   4        -0.00000000
   5         0.05412427
   6         0.00312340
   7         0.73325845
   8        -0.00000000
   9        -0.00000000
  10         0.05412427
Sym=     4a  
Ene=    -1.2501
Spin= Beta
Occup=    1.00000
   1        -0.00312340
   2        -0.73325845
   3        -0.00000000
   4        -0.00000000
   5         0.05412427
   6         0.00312340
   7         0.73325845
   8        -0.00000000
   9        -0.00000000
  10         0.05412427
Sym=     5a  
Ene=    -0.6654
Spin= Alpha
Occup=    1.00000
   1         0.00000000
   2         0.00000000
   3         0.66550304
   4         0.13073948
   5        -0.00000000
   6         0.00000000
   7         0.00000000
   8         0.66550304
   9         0.13073948
  10         0.00000000
Sym=     5a  
Ene=    -0.6654
Spin= Beta
Occup=    1.00000
   1         0.00000000
   2         0.00000000
   3         0.66550304
   4         0.13073948
   5        -0.00000000
   6         0.00000000
   7         0.00000000
   8         0.66550304
   9         0.13073948
  10         0.00000000
Sym=     6a  
Ene=    -0.5969
Spin= Alpha
Occup=    1.00000
   1        -0.00000000
   2        -0.00000000
   3        -0.72614564
   4        -0.14265284
   5         0.00000000
   6        -0.00000000
   7        -0.00000000
   8         0.72614564
   9         0.14265284
  10        -0.00000000
Sym=     6a  
Ene=    -0.5969
Spin= Beta
Occup=    1.00000
   1        -0.00000000
   2        -0.00000000
   3        -0.72614564
   4        -0.14265284
   5         0.00000000
   6        -0.00000000
   7        -0.00000000
   8         0.72614564
   9         0.14265284
  10        -0.00000000
Sym=     7a  
Ene=    -0.5815
Spin= Alpha
Occup=    1.00000
   1         0.00995267
   2         0.16580323
   3        -0.00000000
   4        -0.00000000
   5        -0.65684932
   6         0.00995267
   7         0.16580323
   8         0.00000000
   9        -0.00000000
  10         0.65684932
Sym=     7a  
Ene=    -0.5815
Spin= Beta
Occup=    1.00000
   1         0.00995267
   2         0.16580323
   3        -0.00000000
   4        -0.00000000
   5        -0.65684932
   6         0.00995267
   7         0.16580323
   8         0.00000000
   9        -0.00000000
  10         0.65684932
Sym=     8a  
Ene=    -0.5028
Spin= Alpha
Occup=    1.00000
   1        -0.00000000
   2        -0.00000000
   3        -0.13073948
   4         0.66550304
   5        -0.00000000
   6         0.00000000
   7         0.00000000
   8        -0.13073948
   9         0.66550304
  10        -0.00000000
Sym=     8a  
Ene=    -0.5028
Spin= Beta
Occup=    1.00000
   1        -0.00000000
   2        -0.00000000
   3        -0.13073948
   4         0.66550304
   5        -0.00000000
   6         0.00000000
   7         0.00000000
   8        -0.13073948
   9         0.66550304
  10        -0.00000000
Sym=     9a  
Ene=    -0.1482
Spin= Alpha
Occup=    0.00000
   1         0.00000000
   2         0.00000000
   3         0.14265284
   4        -0.72614564
   5        -0.00000000
   6         0.00000000
   7         0.00000000
   8        -0.14265284
   9         0.72614564
  10         0.00000000
Sym=     9a  
Ene=    -0.1482
Spin= Beta
Occup=    0.00000
   1         0.00000000
   2         0.00000000
   3         0.14265284
   4        -0.72614564
   5        -0.00000000
   6         0.00000000
   7         0.00000000
   8        -0.14265284
   9         0.72614564
  10         0.00000000
Sym=    10a  
Ene=    -0.0181
Spin= Alpha
Occup=    0.00000
   1         0.01326428
   2         0.20866719
   3         0.00000000
   4         0.00000000
   5         0.79611880
   6        -0.01326428
   7        -0.20866719
   8        -0.00000000
   9         0.00000000
  10         0.79611880
Sym=    10a  
Ene=    -0.0181
Spin= Beta
Occup=    0.00000
   1         0.01326428
   2         0.20866719
   3         0.00000000
   4         0.00000000
   5         0.79611880
   6        -0.01326428
   7        -0.20866719
   8        -0.00000000
   9         0.00000000
  10         0.79611880
