[Molden Format]
[N_Atoms]
                     2
[Atoms] (AU)
O1          1      8           0.00000000      0.00000000      0.00000000
O2          2      8           0.00000000      0.00000000      3.40150702
[Charge] (Mulliken)
  0.000000000000000E+000
  0.000000000000000E+000
[GTO] (AU)
   1
   s  14
  1.053749500E+05  1.238600013E-04
  1.567924000E+04  5.120100053E-04
  3.534544700E+03  2.152910022E-03
  9.873651600E+02  8.528440089E-03
  3.159787500E+02  3.018049031E-02
  1.116542800E+02  9.099702095E-02
  4.269945100E+01  2.177936423E-01
  1.739559600E+01  3.686245738E-01
  7.438309000E+00  3.366707335E-01
  3.222862000E+00  9.657630101E-02
  1.253877000E+00  2.144520022E-03
  4.951550000E-01  1.194350012E-03
  1.916650000E-01  5.390200056E-04
  6.708300000E-02  2.103400022E-04
   s  14
  1.053749500E+05 -2.815000008E-05
  1.567924000E+04 -1.163000003E-04
  3.534544700E+03 -4.909200013E-04
  9.873651600E+02 -1.946160005E-03
  3.159787500E+02 -7.005300019E-03
  1.116542800E+02 -2.167814006E-02
  4.269945100E+01 -5.641213015E-02
  1.739559600E+01 -1.127053003E-01
  7.438309000E+00 -1.589119704E-01
  3.222862000E+00 -3.355083009E-02
  1.253877000E+00  3.531902810E-01
  4.951550000E-01  5.534199315E-01
  1.916650000E-01  2.301839106E-01
  6.708300000E-02  1.127267003E-02
   p   9
  2.000000000E+02  9.173000030E-04
  4.653336700E+01  7.377140024E-03
  1.462180900E+01  3.483515011E-02
  5.313064000E+00  1.144397004E-01
  2.102525000E+00  2.554966408E-01
  8.502230000E-01  3.722557412E-01
  3.375970000E-01  3.323314911E-01
  1.288920000E-01  1.400847905E-01
  4.511200000E-02  2.395784008E-02
 
   2
   s  14
  1.053749500E+05  1.238600013E-04
  1.567924000E+04  5.120100053E-04
  3.534544700E+03  2.152910022E-03
  9.873651600E+02  8.528440089E-03
  3.159787500E+02  3.018049031E-02
  1.116542800E+02  9.099702095E-02
  4.269945100E+01  2.177936423E-01
  1.739559600E+01  3.686245738E-01
  7.438309000E+00  3.366707335E-01
  3.222862000E+00  9.657630101E-02
  1.253877000E+00  2.144520022E-03
  4.951550000E-01  1.194350012E-03
  1.916650000E-01  5.390200056E-04
  6.708300000E-02  2.103400022E-04
   s  14
  1.053749500E+05 -2.815000008E-05
  1.567924000E+04 -1.163000003E-04
  3.534544700E+03 -4.909200013E-04
  9.873651600E+02 -1.946160005E-03
  3.159787500E+02 -7.005300019E-03
  1.116542800E+02 -2.167814006E-02
  4.269945100E+01 -5.641213015E-02
  1.739559600E+01 -1.127053003E-01
  7.438309000E+00 -1.589119704E-01
  3.222862000E+00 -3.355083009E-02
  1.253877000E+00  3.531902810E-01
  4.951550000E-01  5.534199315E-01
  1.916650000E-01  2.301839106E-01
  6.708300000E-02  1.127267003E-02
   p   9
  2.000000000E+02  9.173000030E-04
  4.653336700E+01  7.377140024E-03
  1.462180900E+01  3.483515011E-02
  5.313064000E+00  1.144397004E-01
  2.102525000E+00  2.554966408E-01
  8.502230000E-01  3.722557412E-01
  3.375970000E-01  3.323314911E-01
  1.288920000E-01  1.400847905E-01
  4.511200000E-02  2.395784008E-02
 
[MO]
Sym=     1a  
Ene=   -20.6850
Spin= Alpha
Occup=    2.00000
   1         0.70708789
   2         0.00023265
   3         0.00000000
   4         0.00000000
   5         0.00035812
   6         0.70708789
   7         0.00023265
   8        -0.00000000
   9         0.00000000
  10        -0.00035812
Sym=     2a  
Ene=   -20.6830
Spin= Alpha
Occup=    2.00000
   1        -0.70711193
   2         0.00022161
   3        -0.00000000
   4        -0.00000000
   5         0.00035155
   6         0.70711193
   7        -0.00022161
   8         0.00000000
   9        -0.00000000
  10         0.00035155
Sym=     3a  
Ene=    -1.4115
Spin= Alpha
Occup=    2.00000
   1        -0.00535209
   2         0.64637979
   3         0.00000000
   4         0.00000000
   5         0.11088253
   6        -0.00535209
   7         0.64637979
   8         0.00000000
   9        -0.00000000
  10        -0.11088253
Sym=     4a  
Ene=    -1.1612
Spin= Alpha
Occup=    2.00000
   1        -0.00165245
   2        -0.71120754
   3        -0.00000000
   4        -0.00000000
   5         0.12640366
   6         0.00165245
   7         0.71120754
   8         0.00000000
   9        -0.00000000
  10         0.12640366
Sym=     5a  
Ene=    -0.7118
Spin= Alpha
Occup=    2.00000
   1         0.00951056
   2         0.21865561
   3         0.00000000
   4         0.00000000
   5        -0.65002329
   6         0.00951056
   7         0.21865561
   8         0.00000000
   9         0.00000000
  10         0.65002329
Sym=     6a  
Ene=    -0.6915
Spin= Alpha
Occup=    2.00000
   1        -0.00000000
   2        -0.00000000
   3         0.67816349
   4         0.00902179
   5        -0.00000000
   6         0.00000000
   7         0.00000000
   8         0.67816349
   9         0.00902179
  10        -0.00000000
Sym=     7a  
Ene=    -0.6915
Spin= Alpha
Occup=    2.00000
   1        -0.00000000
   2        -0.00000000
   3        -0.00902179
   4         0.67816349
   5         0.00000000
   6         0.00000000
   7         0.00000000
   8        -0.00902179
   9         0.67816349
  10         0.00000000
Sym=     8a  
Ene=    -0.5809
Spin= Alpha
Occup=    1.00000
   1        -0.00000000
   2        -0.00000000
   3        -0.72614564
   4        -0.14265284
   5        -0.00000000
   6         0.00000000
   7         0.00000000
   8         0.72614564
   9         0.14265284
  10        -0.00000000
Sym=     9a  
Ene=    -0.5809
Spin= Alpha
Occup=    1.00000
   1         0.00000000
   2         0.00000000
   3         0.14265284
   4        -0.72614564
   5         0.00000000
   6        -0.00000000
   7         0.00000000
   8        -0.14265284
   9         0.72614564
  10         0.00000000
Sym=    10a  
Ene=    -0.4825
Spin= Alpha
Occup=    0.00000
   1         0.01416183
   2         0.27457928
   3         0.00000000
   4         0.00000000
   5         0.78788119
   6        -0.01416183
   7        -0.27457928
   8         0.00000000
   9         0.00000000
  10         0.78788119
