[Molden Format]
[N_Atoms]
                     2
[Atoms] (AU)
O1          1      8           0.00000000      0.00000000      0.00000000
O2          2      8           0.00000000      0.00000000      3.40150702
[Charge] (Mulliken)
   1.00066974745791     
  0.999330252542084     
[GTO] (AU)
   1
   s  14
  1.053749500E+05  1.238600013E-04
  1.567924000E+04  5.120100053E-04
  3.534544700E+03  2.152910022E-03
  9.873651600E+02  8.528440089E-03
  3.159787500E+02  3.018049031E-02
  1.116542800E+02  9.099702095E-02
  4.269945100E+01  2.177936423E-01
  1.739559600E+01  3.686245738E-01
  7.438309000E+00  3.366707335E-01
  3.222862000E+00  9.657630101E-02
  1.253877000E+00  2.144520022E-03
  4.951550000E-01  1.194350012E-03
  1.916650000E-01  5.390200056E-04
  6.708300000E-02  2.103400022E-04
   s  14
  1.053749500E+05 -2.815000008E-05
  1.567924000E+04 -1.163000003E-04
  3.534544700E+03 -4.909200013E-04
  9.873651600E+02 -1.946160005E-03
  3.159787500E+02 -7.005300019E-03
  1.116542800E+02 -2.167814006E-02
  4.269945100E+01 -5.641213015E-02
  1.739559600E+01 -1.127053003E-01
  7.438309000E+00 -1.589119704E-01
  3.222862000E+00 -3.355083009E-02
  1.253877000E+00  3.531902810E-01
  4.951550000E-01  5.534199315E-01
  1.916650000E-01  2.301839106E-01
  6.708300000E-02  1.127267003E-02
   p   9
  2.000000000E+02  9.173000030E-04
  4.653336700E+01  7.377140024E-03
  1.462180900E+01  3.483515011E-02
  5.313064000E+00  1.144397004E-01
  2.102525000E+00  2.554966408E-01
  8.502230000E-01  3.722557412E-01
  3.375970000E-01  3.323314911E-01
  1.288920000E-01  1.400847905E-01
  4.511200000E-02  2.395784008E-02
 
   2
   s  14
  1.053749500E+05  1.238600013E-04
  1.567924000E+04  5.120100053E-04
  3.534544700E+03  2.152910022E-03
  9.873651600E+02  8.528440089E-03
  3.159787500E+02  3.018049031E-02
  1.116542800E+02  9.099702095E-02
  4.269945100E+01  2.177936423E-01
  1.739559600E+01  3.686245738E-01
  7.438309000E+00  3.366707335E-01
  3.222862000E+00  9.657630101E-02
  1.253877000E+00  2.144520022E-03
  4.951550000E-01  1.194350012E-03
  1.916650000E-01  5.390200056E-04
  6.708300000E-02  2.103400022E-04
   s  14
  1.053749500E+05 -2.815000008E-05
  1.567924000E+04 -1.163000003E-04
  3.534544700E+03 -4.909200013E-04
  9.873651600E+02 -1.946160005E-03
  3.159787500E+02 -7.005300019E-03
  1.116542800E+02 -2.167814006E-02
  4.269945100E+01 -5.641213015E-02
  1.739559600E+01 -1.127053003E-01
  7.438309000E+00 -1.589119704E-01
  3.222862000E+00 -3.355083009E-02
  1.253877000E+00  3.531902810E-01
  4.951550000E-01  5.534199315E-01
  1.916650000E-01  2.301839106E-01
  6.708300000E-02  1.127267003E-02
   p   9
  2.000000000E+02  9.173000030E-04
  4.653336700E+01  7.377140024E-03
  1.462180900E+01  3.483515011E-02
  5.313064000E+00  1.144397004E-01
  2.102525000E+00  2.554966408E-01
  8.502230000E-01  3.722557412E-01
  3.375970000E-01  3.323314911E-01
  1.288920000E-01  1.400847905E-01
  4.511200000E-02  2.395784008E-02
 
[MO]
Sym=     1a  
Ene=   -22.1260
Spin= Alpha
Occup=    2.00000
   1         0.05580005
   2        -0.00083733
   3         0.00000000
   4         0.00000000
   5         0.00018796
   6         0.99843879
   7        -0.00200672
   8         0.00000000
   9         0.00000000
  10        -0.00055639
Sym=     2a  
Ene=   -22.1240
Spin= Alpha
Occup=    2.00000
   1        -0.99829931
   2         0.01494909
   3        -0.00000002
   4        -0.00000003
   5        -0.00190987
   6         0.05579437
   7        -0.00100131
   8         0.00000000
   9         0.00000001
  10         0.00169368
Sym=     3a  
Ene=    -2.2858
Spin= Alpha
Occup=    2.00000
   1         0.00608087
   2        -0.00531209
   3        -0.00000040
   4        -0.00000063
   5        -0.07795757
   6        -0.00071387
   7        -0.97727388
   8         0.00000023
   9         0.00000037
  10         0.08925993
Sym=     4a  
Ene=    -1.5871
Spin= Alpha
Occup=    2.00000
   1         0.00876764
   2        -0.08918071
   3         0.00002913
   4         0.00004557
   5        -0.64374711
   6         0.01130101
   7         0.25205930
   8         0.00111729
   9         0.00177062
  10         0.63950501
Sym=     5a  
Ene=    -1.5867
Spin= Alpha
Occup=    2.00000
   1        -0.00000000
   2         0.00000003
   3         0.84293970
   4        -0.53190063
   5         0.00000021
   6        -0.00000000
   7        -0.00000008
   8         0.02692713
   9        -0.01698688
  10        -0.00000021
Sym=     6a  
Ene=    -1.5866
Spin= Alpha
Occup=    2.00000
   1        -0.00001831
   2         0.00018799
   3         0.01563462
   4         0.02478412
   5         0.00135720
   6        -0.00002382
   7        -0.00052983
   8         0.53205815
   9         0.84318928
  10        -0.00133655
Sym=     7a  
Ene=    -2.2056
Spin= Alpha
Occup=    1.97312
   1        -0.01737173
   2        -1.00807242
   3         0.00000100
   4         0.00000159
   5         0.12029163
   6         0.00312851
   7         0.07519462
   8        -0.00000028
   9        -0.00000045
  10        -0.13383994
Sym=     8a  
Ene=    -0.0000
Spin= Alpha
Occup=    0.02688
   1         0.00000016
   2         0.00000143
   3        -0.53544932
   4        -0.84856335
   5         0.00001923
   6        -0.00000031
   7        -0.00000366
   8         0.06215559
   9         0.09850224
  10         0.00000914
Sym=     9a  
Ene=    -1.0281
Spin= Alpha
Occup=    0.00000
   1         0.01312099
   2         0.14970477
   3         0.00000941
   4         0.00001490
   5         0.79787016
   6        -0.01311086
   7        -0.15023143
   8        -0.00000503
   9        -0.00000796
  10         0.79793986
Sym=    10a  
Ene=    -0.9814
Spin= Alpha
Occup=    0.00000
   1         0.00000000
   2         0.00000000
   3        -0.10063140
   4         0.06349911
   5         0.00000000
   6        -0.00000000
   7        -0.00000000
   8         0.84849804
   9        -0.53540815
  10         0.00000000
