   This run of MOLCAS is using the pymolcas driver

                             OPE
                             OPE          NMOL  CASOP  ENMOLC A   SO
                 OPE        NMOLC        AS  OP EN  MO LC     AS  OP
                OPENM       OL CA        SO  PE NM  OL CA     SOP EN
                OP EN      MO   LC       AS  OP ENMOL  CASO   PENMOL
                OP  EN     MO   LC       AS  OP EN     MO     LC ASO
               OP   E  NMOL  C  AS       OP  EN MO     LC     AS  OP
               OP  E   NMO   LC AS        OPEN  MO     LCASOP EN   M
               O  PEN   MO  LCA  SO
            OPE   NMO   L   CAS    OP
        OPENMOL  CASOP     ENMOL   CASOPE
     OPENMOLCA   SOPENMOLCASOPEN   MOLCASOPE
    OPENMOLCAS   OP           EN   MOL    CAS
    OPENMOLCAS       OP  ENM        O     LCA
    OPENMOLCAS    OPEN  MOLCASO     P  E  NMO
    OPENMOLCAS     OP               E  N  MOL
    OPENMOLCA   SO           PENM   O  L  CAS    OPEN    MO    LCAS
    OPENMOLCA   SOP           ENM   O  L  CAS   OP  EN  MOLC  AS   O
    OPENMOLCA   SOPE           NM      O  LCA   S      OP  EN MO
    OPENMOLC                AS         O  PEN   M      OL  CA  SOPE
    OPENMO        LCASOPE  NMOL        C  ASO   P      ENMOLC     AS
    OPE     NMO      LCA  SO     P     E   NM   OL  CA SO  PE N   MO
          OPENMOLCA            SOPE   NMO        LCAS  O    P  ENMO
     OPENMOLCASOPENMOLCASOPENMOLCASOPENMOLCA
        OPENMOLCASOPENMOLCASOPENMOLCASOPE
            OPENMOLCASOPENMOLCASOPENM
               OPENMOLCASOPENMOLCA        version: 1d1d16313-dirty
                   OPENMOLCASO
                       OPE                tag:

 OpenMolcas is free software; you can redistribute it and/or modify it
 under the terms of the GNU Lesser General Public License version 2.1.
 OpenMolcas is distributed in the hope that it will be useful, but it
 is provided "as is" and without any express or implied warranties.
 For more details see the full text of the license in the file
 LICENSE or in <http://www.gnu.org/licenses/>.

                 Copyright (C) The OpenMolcas Authors
           For the author list and the recommended citation,
                   consult the file CONTRIBUTORS.md

           *************************************************
           * pymolcas version py2.28                       *
           *   build c4a6d18ded8cb6cad61d2372a9abd97c      *
           *   (after the EMIL interpreter by V. Veryazov) *
           *************************************************

configuration info
------------------
C Compiler ID: IntelLLVM
C flags: -std=gnu99
Fortran Compiler ID: IntelLLVM
Fortran flags: -standard-semantics -fltconsistency -fpp -i8 -heap-arrays
Definitions: _MOLCAS_;_I8_;_LINUX_
Parallel: OFF (GA=OFF)


   ------------------------------------------------------------------------------
  |
  |              Project: ozone_167.00
  |       Submitted from: /home/grierjones/DDCASPT2/ozone/ANO-RCC-MB/ozone_167.00
  |         Scratch area: /tmp/ozone_167.00
  |      Save outputs to: /home/grierjones/DDCASPT2/ozone/ANO-RCC-MB/ozone_167.00
  |               Molcas: /home/grierjones/Test/build
  |
  | Scratch area is empty
  |
  |       MOLCAS_DRIVER = /usr/local/pymolcas
  | MOLCAS_KEEP_WORKDIR = NO
  |  MOLCAS_NEW_WORKDIR = YES
  |       MOLCAS_NPROCS = 1
  |        MOLCAS_PRINT = NORMAL
  |       MOLCAS_SOURCE = /home/grierjones/Test
  |    MOLCAS_STRUCTURE = 0
  |
   ------------------------------------------------------------------------------

++ ---------   Input file   ---------

&GATEWAY
coord=ozone_167.00.xyz
Basis = ANO-RCC-MB
Group = nosymm
Expert
End of Input

&SEWARD
End of Input

&SCF

>>> COPY $WorkDir/ozone_167.00.scf.h5 $CurrDir/

&RASSCF
Title= RASSCF
FileOrb
/home/grierjones/DDCASPT2/ozone/ANO-RCC-MB/ozone_166.75/ozone_166.75.RasOrb
NACTEL
4 0 0
Inactive
10
RAS2
3
Symmetry
1
Spin
1
orblisting
all
ITERation
300 200

>>> COPY $WorkDir/ozone_167.00.rasscf.h5 $CurrDir/

>>> COPY $WorkDir/GMJ_Fock_MO.csv $CurrDir/ozone_167.00.GMJ_Fock_MO.csv

>>> COPY $WorkDir/GMJ_PT2_Fock_MO.csv $CurrDir/ozone_167.00.GMJ_PT2_Fock_MO.csv

&MOTRA
Frozen=0
LUMORB

>>> COPY $WorkDir/GMJ_one_int_indx.csv $CurrDir/ozone_167.00.GMJ_one_int_indx.csv

>>> COPY $WorkDir/GMJ_one_int.csv $CurrDir/ozone_167.00.GMJ_one_int.csv

>>> COPY $WorkDir/GMJ_two_int_indx.csv $CurrDir/ozone_167.00.GMJ_two_int_indx.csv

>>> COPY $WorkDir/GMJ_two_int.csv $CurrDir/ozone_167.00.GMJ_two_int.csv

&CASPT2
Frozen
0
MAXITER
50

>>> FOREACH i IN (B,E,F,G,H)

  >>> FOREACH j IN (P,M)

    >>> IF (-FILE GMJ_e2_${i}_${j}.csv)

      >>> COPY $WorkDir/GMJ_RHS_${i}_${j}.csv $CurrDir/GMJ_RHS_${i}_${j}.csv

      >>> COPY $WorkDir/GMJ_IVECW_${i}_${j}.csv $CurrDir/GMJ_IVECW_${i}_${j}.csv

      >>> COPY $WorkDir/GMJ_IVECX_${i}_${j}.csv $CurrDir/GMJ_IVECX_${i}_${j}.csv

      >>> COPY $WorkDir/GMJ_IVECC2_${i}_${j}.csv $CurrDir/GMJ_IVECC2_${i}_${j}.csv

      >>> COPY $WorkDir/GMJ_e2_${i}_${j}.csv $CurrDir/GMJ_e2_${i}_${j}.csv

    >>> END IF

  >>> END FOREACH

>>> END FOREACH

>>> FOREACH i IN (A,C,D)

  >>> IF (-FILE GMJ_e2_$i.csv)

    >>> COPY $WorkDir/GMJ_RHS_$i.csv $CurrDir/GMJ_RHS_$i.csv

    >>> COPY $WorkDir/GMJ_IVECW_$i.csv $CurrDir/GMJ_IVECW_$i.csv

    >>> COPY $WorkDir/GMJ_IVECX_$i.csv $CurrDir/GMJ_IVECX_$i.csv

    >>> COPY $WorkDir/GMJ_IVECC2_$i.csv $CurrDir/GMJ_IVECC2_$i.csv

    >>> COPY $WorkDir/GMJ_e2_$i.csv $CurrDir/GMJ_e2_$i.csv

  >>> END IF

>>> END FOREACH

-- ----------------------------------

--- Start Module: gateway at Sat Jan 25 14:09:42 2025 ---
 
()()()()()()()()()()()()()()()()()()()()()()()()()()()()()()()()()()()()()()()()()()()()()()()()()()

                                              &GATEWAY

                                   only a single process is used
                       available to each process: 2.0 GB of memory, 1 thread?
()()()()()()()()()()()()()()()()()()()()()()()()()()()()()()()()()()()()()()()()()()()()()()()()()()
 
 ###############################################################################
 ###############################################################################
 ###                                                                         ###
 ###                                                                         ###
 ###                                                                         ###
 ###    WARNING: EXPERT option is ON!                                        ###
 ###                                                                         ###
 ###                                                                         ###
 ###############################################################################
 ###############################################################################
 
++    Symmetry information:
      ---------------------
 
                    Character Table for C1 
 
                             E  
                    a        1  x, y, xy, Rz, z, xz, Ry, yz, Rx, I
--
 
 
++    Basis set information:
      ----------------------
 
 
      Basis set label: O.ANO-RCC...2S1P.
 
      Electronic valence basis set:
      ------------------
      Associated Effective Charge   8.000000 au
      Associated Actual Charge      8.000000 au
      Nuclear Model: Point charge
 
      Shell  nPrim  nBasis  Cartesian Spherical Contaminant
         s      14       2        X                  
         p       9       1        X                  
--
 
 
++    Molecular structure info:
      -------------------------
 
                    ************************************************ 
                    **** Cartesian Coordinates / Bohr, Angstrom **** 
                    ************************************************ 
 
     Center  Label                x              y              z                     x              y              z
        1      O1               0.273394       2.399546       0.000000              0.144674       1.269785       0.000000
        2      O2               0.000000       0.000000       0.000000              0.000000       0.000000       0.000000
        3      O3               0.273394      -2.399546       0.000000              0.144674      -1.269785       0.000000
 
                    *************************************** 
                    *    InterNuclear Distances / Bohr    * 
                    *************************************** 
 
               1 O1            2 O2            3 O3    
    1 O1       0.000000
    2 O2       2.415070        0.000000
    3 O3       4.799092        2.415070        0.000000
 
                    ******************************************* 
                    *    InterNuclear Distances / Angstrom    * 
                    ******************************************* 
 
               1 O1            2 O2            3 O3    
    1 O1       0.000000
    2 O2       1.278000        0.000000
    3 O3       2.539570        1.278000        0.000000
 
                    ************************************** 
                    *    Valence Bond Angles / Degree    * 
                    ************************************** 
                          Atom centers                 Phi
                      1 O1       2 O2       3 O3       167.00
--
 
 
            Nuclear Potential Energy             66.33638274 au
 
 ###############################################################################
 ###############################################################################
 ###                                                                         ###
 ###                                                                         ###
 ###    There were warnings during the execution                             ###
 ###    Please, check the output with care!                                  ###
 ###                                                                         ###
 ###                                                                         ###
 ###############################################################################
 ###############################################################################
--- Stop Module: gateway at Sat Jan 25 14:09:42 2025 /rc=_RC_ALL_IS_WELL_ ---
*** files: xmldump
    saved to directory /home/grierjones/DDCASPT2/ozone/ANO-RCC-MB/ozone_167.00

--- Start Module: seward at Sat Jan 25 14:09:42 2025 ---
 
()()()()()()()()()()()()()()()()()()()()()()()()()()()()()()()()()()()()()()()()()()()()()()()()()()

                                              &SEWARD

                                   only a single process is used
                       available to each process: 2.0 GB of memory, 1 thread?
()()()()()()()()()()()()()()()()()()()()()()()()()()()()()()()()()()()()()()()()()()()()()()()()()()
 
 ###############################################################################
 ###############################################################################
 ###                                                                         ###
 ###                                                                         ###
 ###                                                                         ###
 ###    WARNING: EXPERT option is ON!                                        ###
 ###                                                                         ###
 ###                                                                         ###
 ###############################################################################
 ###############################################################################
               SEWARD will generate:
                  Multipole Moment integrals up to order  2
                  Kinetic Energy integrals
                  Nuclear Attraction integrals (point charge)
                  One-Electron Hamiltonian integrals
                  Velocity integrals
                  Relativistic Douglas-Kroll-Hess integrals:
                    - Parametrization         : EXP
                    - DKH order of Hamiltonian: 2
                    - DKH order of Properties : 0
                         - multipole moment operators
                         - electric potential operators
                         - contact operators
                  Atomic mean-field integrals
                  Two-Electron Repulsion integrals
 
                   Integrals are discarded if absolute value <: 0.10E-13
                   Integral cutoff threshold is set to       <: 0.10E-15
 
            Nuclear Potential Energy             66.33638274 au
 
 
      Basis set specifications :
      Symmetry species         a  
      Basis functions           15
 
 
  Input file to MOLDEN was generated!
 
 ###############################################################################
 ###############################################################################
 ###                                                                         ###
 ###                                                                         ###
 ###    There were warnings during the execution                             ###
 ###    Please, check the output with care!                                  ###
 ###                                                                         ###
 ###                                                                         ###
 ###############################################################################
 ###############################################################################
forrtl: warning (525): IEEE_DIVIDE_BY_ZERO is signaling
forrtl: warning (526): IEEE_INVALID is signaling
forrtl: warning (528): IEEE_UNDERFLOW is signaling
--- Stop Module: seward at Sat Jan 25 14:09:42 2025 /rc=_RC_ALL_IS_WELL_ ---
*** files: ozone_167.00.GssOrb ozone_167.00.guessorb.h5 ozone_167.00.guessorb.molden xmldump
    saved to directory /home/grierjones/DDCASPT2/ozone/ANO-RCC-MB/ozone_167.00

*** symbolic link created: INPORB -> ozone_167.00.GssOrb
--- Start Module: scf at Sat Jan 25 14:09:42 2025 ---
 
()()()()()()()()()()()()()()()()()()()()()()()()()()()()()()()()()()()()()()()()()()()()()()()()()()

                                                &SCF

                                   only a single process is used
                       available to each process: 2.0 GB of memory, 1 thread?
()()()()()()()()()()()()()()()()()()()()()()()()()()()()()()()()()()()()()()()()()()()()()()()()()()
 
++    Input section:
      --------------
 
      Header of the integral files:
      
       Integrals generated by seward 4.2.0  , Sat Jan 25 14:09:42 2025
 
 
      Cartesian coordinates in Angstrom:
      -----------------------------------------------------
      No.  Label        X            Y            Z        
      -----------------------------------------------------
       1   O1         0.14467400   1.26978500   0.00000000
       2   O2         0.00000000   0.00000000   0.00000000
       3   O3         0.14467400  -1.26978500   0.00000000
      -----------------------------------------------------
      Nuclear repulsion energy =   66.33638274
--
 
++    Orbital specifications:
      -----------------------
 
      Symmetry species               1
                                     a
      Frozen orbitals                0
      Aufbau                        12
      Start temperature = 0.500
      End temperature   = 0.010
      Temperature Factor= 0.460
      Deleted orbitals               0
      Total number of orbitals      15
      Number of basis functions     15
--
 
      Molecular charge                           0.000
 
++    Optimization specifications:
      ----------------------------
 
      SCF Algorithm: Conventional
      Minimized density differences are used
      Number of density matrices in core                5
      Maximum number of NDDO SCF iterations           400
      Maximum number of HF SCF iterations             400
      Threshold for SCF energy change            0.10E-08
      Threshold for density matrix               0.10E-03
      Threshold for Fock matrix                  0.15E-03
      Threshold for linear dependence            0.10E-08
      Threshold at which DIIS is turned on       0.15E+00
      Threshold at which QNR/C2DIIS is turned on 0.75E-01
      Threshold for Norm(delta) (QNR/C2DIIS)     0.20E-04
      DIIS extrapolation of the SCF procedure
      All orbitals punched on: SCFORB
--
 
      Input vectors read from INPORB
      Orbital file label: *Guess orbitals
 
 
++ Convergence information
                                   SCF        iterations: Energy and convergence statistics
 
Iter     Tot. SCF        One-elec.       Two-elec.     Energy      Max Dij or  Max Fij      DNorm      TNorm      AccCon     Time
         Energy          Energy          Energy        Change      Delta Norm                                                in Sec.
   1  -221.453774038  -440.315746994   152.525590215   0.00E+00    0.65E-01*   0.13E+00*    0.77E+01   0.50E+02   None         0.
   2  -222.905978513  -439.460288741   150.217927487  -0.15E+01*   0.58E-01*   0.45E-01*    0.30E+01   0.50E+02   EDIIS        0.
   3  -223.697398943  -439.063417313   149.029635630  -0.79E+00*   0.35E-01*   0.25E-01*    0.15E+01   0.49E+02   EDIIS        0.
   4  -223.955112780  -438.493305973   148.201810452  -0.26E+00*   0.80E-01*   0.54E-01*    0.37E+00   0.49E+02   EDIIS        0.
   5  -224.009296606  -438.822083318   148.476403971  -0.54E-01*   0.82E-01*   0.34E-01*    0.87E+00   0.49E+02   EDIIS        0.
   6  -224.188543555  -438.528638841   148.003712545  -0.18E+00*   0.34E-01*   0.36E-01*    0.49E+00   0.49E+02   EDIIS        0.
   7  -224.190679066  -438.681928276   148.154866470  -0.21E-02*   0.40E-01*   0.14E-01*    0.11E+00   0.49E+02   EDIIS        0.
 
       Fermi aufbau procedure completed!
      nOcc=   12
 
   8  -224.191348780  -438.603444930   148.075713409  -0.67E-03*   0.12E-01*   0.95E-02*    0.36E-01   0.49E+02   EDIIS        0.
   9  -224.191578736  -438.649024899   148.121063422  -0.23E-03*   0.13E-01*   0.47E-02*    0.12E-01   0.49E+02   EDIIS        0.
  10  -224.191662034  -438.627097657   148.099052882  -0.83E-04*   0.43E-02*   0.28E-02*    0.24E-02   0.49E+02   EDIIS        0.
  11  -224.191693524  -438.640545797   148.112469532  -0.31E-04*   0.43E-02*   0.15E-02*    0.55E-03   0.49E+02   EDIIS        0.
  12  -224.191705970  -438.634383225   148.106294514  -0.12E-04*   0.30E-02*   0.31E-03*    0.17E-03   0.49E+02   c2DIIS       0.
  13  -224.191708209  -438.635756193   148.107665243  -0.22E-05*   0.12E-02*   0.65E-03*    0.95E-05   0.49E+02   QNRc2DIIS    0.
  14  -224.191712019  -438.637753506   148.109658746  -0.38E-05*   0.26E-02*   0.40E-03*    0.18E-01   0.49E+02   QNRc2DIIS    0.
  15  -224.191714943  -438.637025260   148.108927576  -0.29E-05*   0.22E-03*   0.18E-03*    0.18E-02   0.49E+02   QNRc2DIIS    0.
  16  -224.191715040  -438.637663140   148.109565360  -0.97E-07*   0.26E-03*   0.44E-04     0.84E-03   0.49E+02   QNRc2DIIS    0.
  17  -224.191715079  -438.637650929   148.109553109  -0.40E-07*   0.74E-05    0.30E-05     0.84E-03   0.49E+02   QNRc2DIIS    0.
  18  -224.191715079  -438.637646927   148.109549107  -0.56E-10    0.25E-06    0.13E-06     0.17E-01   0.49E+02   QNRc2DIIS    0.
 
       Convergence after 18 Macro Iterations
--
 
 *****************************************************************************************************************************
 *                                                                                                                           *
 *                                             SCF/KS-DFT Program, Final results                                             *
 *                                                                                                                           *
 *                                                                                                                           *
 *                                                                                                                           *
 *                                                       Final Results                                                       *
 *                                                                                                                           *
 *****************************************************************************************************************************
 
::    Total SCF energy                               -224.1917150794
      One-electron energy                            -438.6376469268
      Two-electron energy                             148.1095491067
      Nuclear repulsion energy                         66.3363827406
      Kinetic energy (interpolated)                   224.7673361551
      Virial theorem                                    0.9974390359
      Total spin, S(S+1)                                0.0000000000
      Total spin, S                                     0.0000000000
      Max non-diagonal density matrix element           0.0000003898
      Max non-diagonal Fock matrix element              0.0000000700
 
 
      All orbitals with orbital energies smaller than  E(LUMO)+0.5 are printed
 
++    Molecular orbitals:
      -------------------
 
      Title: SCF orbitals

      Molecular orbitals for symmetry species 1: a  
 
          Orbital            1         2         3         4         5         6         7         8         9        10    
          Energy          -20.9961  -20.8131  -20.8131   -1.7515   -1.5113   -1.1028   -0.8776   -0.8052   -0.8047   -0.6577
          Occ. No.          2.0000    2.0000    2.0000    2.0000    2.0000    2.0000    2.0000    2.0000    2.0000    2.0000
 
        1 O1     1s         0.0012   -0.7071    0.7071   -0.0154    0.0166    0.0139   -0.0041   -0.0000   -0.0279    0.0036
        2 O1     2s        -0.0003   -0.0002    0.0000    0.3162   -0.5327    0.6586   -0.0729   -0.0000   -0.4643    0.0525
        3 O1     2px       -0.0001    0.0001   -0.0001   -0.0134    0.0100    0.0273    0.2982   -0.0000   -0.1268   -0.7010
        4 O1     2py        0.0000    0.0013   -0.0011   -0.1047    0.1052    0.1550   -0.0778   -0.0000   -0.4023    0.1383
        5 O1     2pz       -0.0000    0.0000    0.0000   -0.0000    0.0000    0.0000   -0.0000    0.3884   -0.0000    0.0000
        6 O2     1s         1.0000   -0.0000   -0.0020   -0.0240   -0.0000   -0.0138   -0.0014    0.0000   -0.0000   -0.0000
        7 O2     2s         0.0002   -0.0000   -0.0010    0.6596    0.0000   -0.6190   -0.0219    0.0000   -0.0000   -0.0000
        8 O2     2px        0.0005   -0.0000   -0.0000    0.0422    0.0000    0.0545    0.7755    0.0000   -0.0000    0.0000
        9 O2     2py       -0.0000    0.0007   -0.0000    0.0000   -0.3611   -0.0000    0.0000    0.0000    0.5964   -0.0831
       10 O2     2pz       -0.0000   -0.0000   -0.0000   -0.0000    0.0000    0.0000   -0.0000    0.6834   -0.0000   -0.0000
       11 O3     1s         0.0012    0.7071    0.7071   -0.0154   -0.0166    0.0139   -0.0041    0.0000    0.0279   -0.0036
       12 O3     2s        -0.0003    0.0002    0.0000    0.3162    0.5327    0.6586   -0.0729    0.0000    0.4643   -0.0525
       13 O3     2px       -0.0001   -0.0001   -0.0001   -0.0134   -0.0100    0.0273    0.2982    0.0000    0.1268    0.7010
       14 O3     2py       -0.0000    0.0013    0.0011    0.1047    0.1052   -0.1550    0.0778   -0.0000   -0.4023    0.1383
       15 O3     2pz       -0.0000   -0.0000    0.0000    0.0000   -0.0000    0.0000   -0.0000    0.3884   -0.0000   -0.0000
 
          Orbital           11        12        13        14    
          Energy           -0.5435   -0.5326   -0.0895    0.1194
          Occ. No.          2.0000    2.0000    0.0000    0.0000
 
        1 O1     1s        -0.0000    0.0016    0.0000    0.0159
        2 O1     2s        -0.0000    0.0103    0.0000    0.2301
        3 O1     2px        0.0000    0.6656    0.0000   -0.0143
        4 O1     2py        0.0000    0.0187    0.0000   -0.7640
        5 O1     2pz       -0.7162    0.0000    0.6190    0.0000
        6 O2     1s         0.0000    0.0089    0.0000   -0.0832
        7 O2     2s         0.0000    0.1040    0.0000   -0.8596
        8 O2     2px       -0.0000   -0.6796   -0.0000   -0.1810
        9 O2     2py        0.0000    0.0000   -0.0000   -0.0000
       10 O2     2pz        0.0000    0.0000   -0.7924   -0.0000
       11 O3     1s         0.0000    0.0016   -0.0000    0.0159
       12 O3     2s         0.0000    0.0103   -0.0000    0.2301
       13 O3     2px        0.0000    0.6656    0.0000   -0.0143
       14 O3     2py        0.0000   -0.0187   -0.0000    0.7640
       15 O3     2pz        0.7162   -0.0000    0.6190    0.0000
--
 
 
++    Molecular charges:
      ------------------
 
      Mulliken charges per centre and basis function type
      ---------------------------------------------------
 
                O1      O2      O3    
      1s       2.0001  2.0000  2.0001
      2s       1.9200  1.6644  1.9200
      2px      1.9912  1.9672  1.9912
      2pz      1.4211  1.1577  1.4211
      2py      0.7065  1.1327  0.7065
      Total    8.0390  7.9220  8.0390
 
      N-E     -0.0390  0.0780 -0.0390
 
      Total electronic charge=   24.000000
 
      Total            charge=   -0.000000
--
 
 
  Input file to MOLDEN was generated!
 
 
++    Static properties:
      ------------------
 
 
      LoProp Charges per center
 

                   O1       O2       O3    
      Nuclear      8.0000   8.0000   8.0000
      Electronic  -8.0877  -7.8247  -8.0877
 
      Total       -0.0877   0.1753  -0.0877
--
 
 
++    Natural Bond Order analysis
      ---------------------------
      Based on LoProp computed density
      -------------------------------------------------------------------------------------
      Atom A       Atom B       Bond Order | Atom A       Atom B       Bond Order
        O1           O2             2.000  |   O2           O3             2.000
      -------------------------------------------------------------------------------------
      NBO located     12.000 core electrons.
      NBO located      3.967 lone pair electrons.
      NBO located      8.000 electrons involved in    2 bonds.
      The remaining    0.033 electrons are to be considered as diffuse
--
 
 
++    Molecular properties:
      ---------------------
 
      Charge (e):
                      =   -0.0000
      Dipole Moment (Debye):
      Origin of the operator (Ang)=    0.0000    0.0000    0.0000
                   X=  1.1743E-01               Y= -1.4344E-10               Z= -6.2586E-14           Total=  1.1743E-01
      Quadrupole Moment (Debye*Ang):
      Origin of the operator (Ang)=    0.0964    0.0000    0.0000
                  XX= -1.7486E+01              XY= -7.3877E-12              XZ=  1.8532E-13              YY= -1.7718E+01
                  YZ=  1.9752E-13              ZZ= -1.5870E+01
      In traceless form (Debye*Ang)
                  XX= -6.9220E-01              XY= -1.1082E-11              XZ=  2.7798E-13              YY= -1.0400E+00
                  YZ=  2.9628E-13              ZZ=  1.7322E+00
--
 
 
  Input file to MOLDEN was generated!
 
 ###############################################################################
 ###############################################################################
 ###                                                                         ###
 ###                                                                         ###
 ###    RunFile label nBas                                                   ###
 ###    was used       78 times                                              ###
 ###                                                                         ###
 ###                                                                         ###
 ###############################################################################
 ###############################################################################
forrtl: warning (528): IEEE_UNDERFLOW is signaling
--- Stop Module: scf at Sat Jan 25 14:09:43 2025 /rc=_RC_ALL_IS_WELL_ ---
*** files: ozone_167.00.LprOrb ozone_167.00.LoProp.molden ozone_167.00.scf.molden ozone_167.00.ScfOrb ozone_167.00.scf.h5 xmldump
    saved to directory /home/grierjones/DDCASPT2/ozone/ANO-RCC-MB/ozone_167.00

>>> COPY /tmp/ozone_167.00/ozone_167.00.scf.h5 /home/grierjones/DDCASPT2/ozone/ANO-RCC-MB/ozone_167.00/

*** symbolic link created: INPORB -> ozone_167.00.ScfOrb
--- Start Module: rasscf at Sat Jan 25 14:09:43 2025 ---
 
()()()()()()()()()()()()()()()()()()()()()()()()()()()()()()()()()()()()()()()()()()()()()()()()()()

                                              &RASSCF

                                   only a single process is used
                       available to each process: 2.0 GB of memory, 1 thread?
()()()()()()()()()()()()()()()()()()()()()()()()()()()()()()()()()()()()()()()()()()()()()()()()()()
 
 
 *************** WARNING ****************
 ###############################################################################
 ###############################################################################
 ###                                                                         ###
 ###                                                                         ###
 ###    Too many macro-iterations.                                           ###
 ###                                                                         ###
 ###                                                                         ###
 ###############################################################################
 ###############################################################################
 Too many macro-iterations requested.
 Reset to maximum, new MAXIT=     200
 ****************************************
 
 *************** WARNING ****************
 ###############################################################################
 ###############################################################################
 ###                                                                         ###
 ###                                                                         ###
 ###    Too many SX-iterations.                                              ###
 ###                                                                         ###
 ###                                                                         ###
 ###############################################################################
 ###############################################################################
 Too many SX-iterations requested.
 Reset to maximum, new ITMAX=     100
 ****************************************
 
      Header of the ONEINT file:
      --------------------------
      
      Integrals generated by seward 4.2.0  , Sat Jan 25 14:09:42 2025
 
 
      OrdInt status: non-squared
 
 
      Cartesian coordinates in Angstrom:
      -----------------------------------------------------
      No.  Label        X            Y            Z        
      -----------------------------------------------------
       1   O1         0.14467400   1.26978500   0.00000000
       2   O2         0.00000000   0.00000000   0.00000000
       3   O3         0.14467400  -1.26978500   0.00000000
      -----------------------------------------------------
      Nuclear repulsion energy =   66.33638274
 
++    Wave function specifications:
      -----------------------------
 
      Number of closed shell electrons          20
      Number of electrons in active shells       4
      Max number of holes in RAS1 space          0
      Max nr of electrons in RAS3 space          0
      Number of inactive orbitals               10
      Number of active orbitals                  3
      Number of secondary orbitals               2
      Spin quantum number                      0.0
      State symmetry                             1
--
 
++    Orbital specifications:
      -----------------------
 
      Symmetry species                           1
                                                 a
      Frozen orbitals                            0
      Inactive orbitals                         10
      Active orbitals                            3
      RAS1 orbitals                              0
      RAS2 orbitals                              3
      RAS3 orbitals                              0
      Secondary orbitals                         2
      Deleted orbitals                           0
      Number of basis functions                 15
--
 
++    CI expansion specifications:
      ----------------------------
 
      Number of CSFs                             6
      Number of determinants                     6
      Number of root(s) required                 1
      Root chosen for geometry opt.              1
      CI root used                               1
         
      highest root included in the CI            1
      max. size of the explicit Hamiltonian      6
--
 
++    Optimization specifications:
      ----------------------------
 
      RASSCF algorithm: Conventional
      Maximum number of macro iterations       200
      Maximum number of SX iterations          100
      Threshold for RASSCF energy            0.100E-07
      Threshold for max MO rotation          0.100E+00
      Threshold for max BLB element          0.100E-03
      Level shift parameter                  0.500E+00
      Make Quasi-Newton update
--
 
      The MO-coefficients are taken from the file:
      /home/grierjones/DDCASPT2/ozone/ANO-RCC-MB/ozone_166.75/ozone_166.75.RasOrb                                                     
      Title: RASSCF average (pseudo-natural) orbitals                                      
 
      Total molecular charge    0.00
 
      ************************************************************************************************************************
      *                                                                                                                      *
      *                                            Wave function control section                                             *
      *                                                                                                                      *
      ************************************************************************************************************************
 
 
                                         RASSCF iterations: Energy and convergence statistics
                                         ----------------------------------------------------
 
      Iter CI   SX   CI       RASSCF       Energy    max ROT     max BLB   max BLB  Level Ln srch  Step   QN   Walltime
          iter iter root      energy       change     param      element    value   shift minimum  type update hh:mm:ss
 Nr of preliminary CI iterations:   1
        1   1    3    1  -224.28269545    0.00E+00   0.71E-03    9  15 1  0.18E-02*  0.24   0.00    SX    NO    0:00:00
        2   1    3    1  -224.28269958   -0.41E-05* -0.41E-03    7  14 1 -0.98E-03*  0.24   0.00    SX    NO    0:00:00
        3   1    3    1  -224.28270077   -0.12E-05* -0.25E-03    7  14 1 -0.60E-03*  0.24   0.00    SX    NO    0:00:00
        4   1    3    1  -224.28270119   -0.41E-06* -0.14E-03    7  14 1 -0.34E-03*  0.24   0.00    SX    NO    0:00:00
        5   1    3    1  -224.28270132   -0.14E-06*  0.24E-03    7  14 1 -0.20E-03*  0.24   1.84    QN   YES    0:00:00
        6   1    2    1  -224.28270141   -0.89E-07*  0.41E-04    7  14 1  0.66E-04   0.24   0.88    QN   YES    0:00:00
        7   1    2    1  -224.28270141   -0.13E-09   0.27E-04    8  15 1 -0.84E-04   0.24   0.43    QN   YES    0:00:00
      Convergence after  7 iterations
 
  Dmat in MO in SXCTL bf call to SXHAM                                                                                    
  mat. size =     3x    3
 
        1.9821686220403356
       -0.0000000000000941      1.6966544827659775
        0.0008767881029629     -0.0000000000000379      0.3211768951936872
        8   1    2    1  -224.28270142   -0.38E-08   0.27E-04   10  14 1  0.28E-04   0.24   0.43    QN   YES    0:00:00
 
      ************************************************************************************************************************
                                                      Wave function printout:
                       occupation of active orbitals, and spin coupling of open shells (u,d: Spin up or down)
      ************************************************************************************************************************
 
      Note: transformation to natural orbitals
      has been made, which may change the order of the CSFs.
 
      printout of CI-coefficients larger than  0.05 for root  1
      energy=    -224.282701
      conf/sym  111     Coeff  Weight
             1  220  -0.91619 0.83941
             3  202   0.38945 0.15167
             6  022   0.09442 0.00892
 
      Natural orbitals and occupation numbers for root  1
      sym 1:   1.982169   1.696654   0.321176
 
      ************************************************************************************************************************
      *                                                                                                                      *
      *                                                    Final results                                                     *
      *                                                                                                                      *
      ************************************************************************************************************************
 
 
++    Wave function specifications:
      -----------------------------
 
      Number of closed shell electrons          20
      Number of electrons in active shells       4
      Max number of holes in RAS1 space          0
      Max nr of electrons in RAS3 space          0
      Number of inactive orbitals               10
      Number of active orbitals                  3
      Number of secondary orbitals               2
      Spin quantum number                      0.0
      State symmetry                             1
--
 
++    Orbital specifications:
      -----------------------
 
      Symmetry species                           1
                                                 a
      Frozen orbitals                            0
      Inactive orbitals                         10
      Active orbitals                            3
      RAS1 orbitals                              0
      RAS2 orbitals                              3
      RAS3 orbitals                              0
      Secondary orbitals                         2
      Deleted orbitals                           0
      Number of basis functions                 15
--
 
++    CI expansion specifications:
      ----------------------------
 
      Number of CSFs                             6
      Number of determinants                     6
      Number of root(s) required                 1
      CI root used                               1
      highest root included in the CI            1
      Root passed to geometry opt.               1
--
 
++    Final optimization conditions:
      ------------------------------
 
      Average CI energy                            -224.28270142
      RASSCF energy for state  1                   -224.28270142
      Super-CI energy                                -0.00000001
      RASSCF energy change                           -0.00000000
      Max change in MO coefficients              -0.244E-04
      Max non-diagonal density matrix element     0.275E-04
      Maximum BLB matrix element                  0.283E-04
      (orbital pair  10,  14 in symmetry   1)
      Norm of electronic gradient            0.614E-04
--
 
 
      Final state energy(ies):
      ------------------------
 
::    RASSCF root number  1 Total energy:   -224.28270142
 
++    Molecular orbitals:
      -------------------
 
      Pseudonatural active orbitals and approximate occupation numbers
 
 
 
 
      Molecular orbitals for symmetry species 1: a  
 
 
      Orbital                1         2         3         4         5         6         7         8         9        10
      Energy          -20.8604  -20.8527  -20.8527   -1.7154   -1.5019   -1.0965   -0.8397   -0.7976   -0.6726   -0.5159
      Occ. No.          2.0000    2.0000    2.0000    2.0000    2.0000    2.0000    2.0000    2.0000    2.0000    2.0000
 
    1 O1     1s         0.0263   -0.7071    0.7066   -0.0143    0.0144    0.0142   -0.0033   -0.0256    0.0041    0.0013
    2 O1     2s        -0.0004   -0.0001   -0.0001    0.3526   -0.5590    0.6360   -0.0545   -0.4159    0.0605    0.0031
    3 O1     2px       -0.0001    0.0001   -0.0001   -0.0131    0.0086    0.0302    0.3792   -0.1520   -0.6965    0.6231
    4 O1     2py        0.0001    0.0012   -0.0011   -0.1105    0.1016    0.1865   -0.0826   -0.4375    0.1545    0.0470
    5 O1     2pz       -0.0000   -0.0000   -0.0000   -0.0000    0.0000   -0.0000   -0.0000    0.0000   -0.0000    0.0000
    6 O2     1s         0.9993   -0.0000   -0.0376   -0.0265   -0.0000   -0.0095   -0.0018   -0.0000    0.0000    0.0115
    7 O2     2s         0.0006   -0.0000   -0.0010    0.6123    0.0000   -0.6205   -0.0365   -0.0000    0.0000    0.1426
    8 O2     2px        0.0007   -0.0000   -0.0001    0.0444    0.0000    0.0319    0.6827   -0.0000    0.0000   -0.7657
    9 O2     2py        0.0000    0.0006   -0.0000    0.0000   -0.3184   -0.0000    0.0000    0.5494   -0.0939    0.0000
   10 O2     2pz       -0.0000    0.0000    0.0000    0.0000    0.0000   -0.0000   -0.0000    0.0000   -0.0000    0.0000
   11 O3     1s         0.0263    0.7071    0.7066   -0.0143   -0.0144    0.0142   -0.0033    0.0256   -0.0041    0.0013
   12 O3     2s        -0.0004    0.0001   -0.0001    0.3526    0.5590    0.6360   -0.0545    0.4159   -0.0605    0.0031
   13 O3     2px       -0.0001   -0.0001   -0.0001   -0.0131   -0.0086    0.0302    0.3792    0.1520    0.6965    0.6231
   14 O3     2py       -0.0001    0.0012    0.0011    0.1105    0.1016   -0.1865    0.0826   -0.4375    0.1545   -0.0470
   15 O3     2pz        0.0000    0.0000    0.0000   -0.0000    0.0000   -0.0000   -0.0000    0.0000   -0.0000   -0.0000
 
 
      Orbital               11        12        13        14        15
      Energy            0.0000    0.0000    0.0000    0.1126    0.5736
      Occ. No.          1.9822    1.6967    0.3212    0.0000    0.0000
 
    1 O1     1s         0.0000   -0.0000   -0.0000   -0.0168   -0.0560
    2 O1     2s         0.0000   -0.0000    0.0000   -0.2456   -0.5106
    3 O1     2px       -0.0000    0.0000   -0.0000    0.0011    0.0963
    4 O1     2py        0.0000    0.0000    0.0000    0.7543    0.6713
    5 O1     2pz        0.2963   -0.7162    0.6680   -0.0000    0.0000
    6 O2     1s        -0.0000   -0.0000    0.0000    0.0825    0.0000
    7 O2     2s        -0.0000    0.0000    0.0000    0.8870    0.0000
    8 O2     2px        0.0000   -0.0000   -0.0000    0.2129    0.0000
    9 O2     2py       -0.0000    0.0000   -0.0000   -0.0000    1.1266
   10 O2     2pz        0.7893   -0.0000   -0.6870    0.0000    0.0000
   11 O3     1s        -0.0000   -0.0000    0.0000   -0.0168    0.0560
   12 O3     2s        -0.0000    0.0000   -0.0000   -0.2456    0.5106
   13 O3     2px        0.0000    0.0000    0.0000    0.0011   -0.0963
   14 O3     2py        0.0000   -0.0000   -0.0000   -0.7543    0.6713
   15 O3     2pz        0.2963    0.7162    0.6680   -0.0000   -0.0000
--
 
      Von Neumann Entropy (Root  1) =  0.63784
 

      Mulliken population analysis for root number:  1
      -----------------------------------------------
 
 
++    Molecular charges:
      ------------------
 
      Mulliken charges per centre and basis function type
      ---------------------------------------------------
 
                O1      O2      O3    
      1s       2.0001  2.0001  2.0001
      2s       1.9128  1.6062  1.9128
      2px      1.9929  1.9503  1.9929
      2pz      1.2402  1.5196  1.2402
      2py      0.8083  1.0154  0.8083
      Total    7.9543  8.0915  7.9543
 
      N-E      0.0457 -0.0915  0.0457
 
      Total electronic charge=   24.000000
 
      Total            charge=   -0.000000
--
 
 

      Expectation values of various properties for root number:  1
      -----------------------------------------------------------
 
 
++    Molecular properties:
      ---------------------
 
      Charge (e):
                      =   -0.0000
      Dipole Moment (Debye):
      Origin of the operator (Ang)=    0.0000    0.0000    0.0000
                   X=  3.1468E-01               Y=  9.1768E-13               Z=  6.4631E-14           Total=  3.1468E-01
      Quadrupole Moment (Debye*Ang):
      Origin of the operator (Ang)=    0.0964    0.0000    0.0000
                  XX= -1.7446E+01              XY=  7.0185E-15              XZ=  4.5438E-14              YY= -1.6726E+01
                  YZ=  3.2371E-13              ZZ= -1.5671E+01
      In traceless form (Debye*Ang)
                  XX= -1.2476E+00              XY=  1.0528E-14              XZ=  6.8158E-14              YY= -1.6697E-01
                  YZ=  4.8557E-13              ZZ=  1.4145E+00
--
 

      LoProp population analysis for root number:  1
      -----------------------------------------------
 
 
++    LoProp analysis:
      ----------------
 
 
 
  Input file to MOLDEN was generated!
 
 
++    Static properties:
      ------------------
 
 
      LoProp Charges per center
 

                   O1       O2       O3    
      Nuclear      8.0000   8.0000   8.0000
      Electronic  -7.9920  -8.0159  -7.9920
 
      Total        0.0080  -0.0159   0.0080
--
 
 
      Natural Bond Order analysis for root number:  1
 
++    Natural Bond Order analysis
      ---------------------------
      Based on LoProp computed density
      -------------------------------------------------------------------------------------
      Atom A       Atom B       Bond Order | Atom A       Atom B       Bond Order
        O1           O2             1.962  |   O2           O3             1.962
      -------------------------------------------------------------------------------------
      NBO located     12.000 core electrons.
      NBO located      3.966 lone pair electrons.
      NBO located      7.849 electrons involved in    2 bonds.
      The remaining    0.184 electrons are to be considered as diffuse
--
 
--
 
 
  Input file to MOLDEN was generated!
 
      Average orbitals are written to the RASORB file
      Natural orbitals for root   1 are written to the RASORB.1 file
      Spin density orbitals for root   1 are written to the SPDORB.1 file
 
forrtl: warning (525): IEEE_DIVIDE_BY_ZERO is signaling
forrtl: warning (526): IEEE_INVALID is signaling
forrtl: warning (528): IEEE_UNDERFLOW is signaling
--- Stop Module: rasscf at Sat Jan 25 14:09:43 2025 /rc=_RC_ALL_IS_WELL_ ---
*** files: ozone_167.00.LprOrb ozone_167.00.rasscf.molden ozone_167.00.LoProp.molden ozone_167.00.RasOrb ozone_167.00.RasOrb.1 ozone_167.00.rasscf.h5 ozone_167.00.SpdOrb.1 xmldump
    saved to directory /home/grierjones/DDCASPT2/ozone/ANO-RCC-MB/ozone_167.00

>>> COPY /tmp/ozone_167.00/ozone_167.00.rasscf.h5 /home/grierjones/DDCASPT2/ozone/ANO-RCC-MB/ozone_167.00/

>>> COPY /tmp/ozone_167.00/GMJ_Fock_MO.csv /home/grierjones/DDCASPT2/ozone/ANO-RCC-MB/ozone_167.00/ozone_167.00.GMJ_Fock_MO.csv

>>> COPY /tmp/ozone_167.00/GMJ_PT2_Fock_MO.csv /home/grierjones/DDCASPT2/ozone/ANO-RCC-MB/ozone_167.00/ozone_167.00.GMJ_PT2_Fock_MO.csv

*** symbolic link created: INPORB -> ozone_167.00.RasOrb
--- Start Module: motra at Sat Jan 25 14:09:43 2025 ---
 
()()()()()()()()()()()()()()()()()()()()()()()()()()()()()()()()()()()()()()()()()()()()()()()()()()

                                               &MOTRA

                                   only a single process is used
                       available to each process: 2.0 GB of memory, 1 thread?
()()()()()()()()()()()()()()()()()()()()()()()()()()()()()()()()()()()()()()()()()()()()()()()()()()
 
 
      *** WARNING: Default frozen orbitals is overwritten by user input.
      *** Default values:   3
 
      Header of the integral files:
      
       Integrals generated by seward 4.2.0  , Sat Jan 25 14:09:42 2025
 
 
      Header of MO coefficients source file:
      * RASSCF average (pseudo-natural) orbitals                                      
 
 
      Cartesian coordinates in Angstrom:
      -----------------------------------------------------
      No.  Label        X            Y            Z        
      -----------------------------------------------------
       1   O1         0.14467400   1.26978500   0.00000000
       2   O2         0.00000000   0.00000000   0.00000000
       3   O3         0.14467400  -1.26978500   0.00000000
      -----------------------------------------------------
      Nuclear repulsion energy =   66.33638274
 
      Orbital specifications:
      -----------------------
 
      Symmetry species:              1
      Number of basis functions:    15
      Frozen orbitals:               0
      Deleted orbitals:              0
      Number of orbitals used:      15

       SYMMETRY  BASIS FUNCTIONS       ORBITALS      INTEGRALS   CPU(SEC)  I/O(SEC)
 
        1 1 1 1   15  15  15  15    15  15  15  15        7260       0.00      0.00

       TOTAL CPU TIME(SEC)    0.00TOTAL I/O TIME(SEC)    0.01
 
--- Stop Module: motra at Sat Jan 25 14:09:43 2025 /rc=_RC_ALL_IS_WELL_ ---
*** files: xmldump
    saved to directory /home/grierjones/DDCASPT2/ozone/ANO-RCC-MB/ozone_167.00

>>> COPY /tmp/ozone_167.00/GMJ_one_int_indx.csv /home/grierjones/DDCASPT2/ozone/ANO-RCC-MB/ozone_167.00/ozone_167.00.GMJ_one_int_indx.csv

>>> COPY /tmp/ozone_167.00/GMJ_one_int.csv /home/grierjones/DDCASPT2/ozone/ANO-RCC-MB/ozone_167.00/ozone_167.00.GMJ_one_int.csv

>>> COPY /tmp/ozone_167.00/GMJ_two_int_indx.csv /home/grierjones/DDCASPT2/ozone/ANO-RCC-MB/ozone_167.00/ozone_167.00.GMJ_two_int_indx.csv

>>> COPY /tmp/ozone_167.00/GMJ_two_int.csv /home/grierjones/DDCASPT2/ozone/ANO-RCC-MB/ozone_167.00/ozone_167.00.GMJ_two_int.csv

*** symbolic link created: INPORB -> ozone_167.00.RasOrb
--- Start Module: caspt2 at Sat Jan 25 14:09:43 2025 ---
 
()()()()()()()()()()()()()()()()()()()()()()()()()()()()()()()()()()()()()()()()()()()()()()()()()()

                                              &CASPT2

                                   only a single process is used
                       available to each process: 2.0 GB of memory, 1 thread?
()()()()()()()()()()()()()()()()()()()()()()()()()()()()()()()()()()()()()()()()()()()()()()()()()()
 
 Cholesky algorithm in CASPT2 =    1
 
 ###############################################################################
 ###############################################################################
 ###                                                                         ###
 ###                                                                         ###
 ###    User changed nr of frozen orbitals.                                  ###
 ###                                                                         ###
 ###                                                                         ###
 ###############################################################################
 ###############################################################################
 
++    Wave function specifications:
      -----------------------------
 
      Number of closed shell electrons          20
      Number of electrons in active shells       4
      Max number of holes in RAS1 space          0
      Max number of electrons in RAS3 space      0
      Number of inactive orbitals               10
      Number of active orbitals                  3
      Number of secondary orbitals               2
      Spin quantum number                      0.0
      State symmetry                             1
      Number of CSFs                             6
      Number of root(s) available                1
      Root passed to geometry opt.               1
      A file JOBMIX will be created.
      This is a CASSCF or RASSCF reference function
--
 
++    Orbital specifications:
      -----------------------
 
      Symmetry species                           1
                                                 a
      Frozen orbitals                            0
      Inactive orbitals                         10
      Active orbitals                            3
      Secondary orbitals                         2
      Deleted orbitals                           0
      Number of basis functions                 15
--
 
      Type of Fock operator: STANDARD
      Type of 0-order Hamiltonian: STANDARD WITH DEFAULT IPEA
        "IP-EA" denominator shift =      0.25
      The input orbitals and the CI vector will be transformed.
 
--------------------------------------------------------------------------------
 Estimated memory requirements:
  POLY3 :                   250202
  RHS:                      251368
  SIGMA :                   251440
  PRPCTL:                        0
 Available workspace:    230399382
 
++ CASPT2 computation for group   1
 
********************************************************************************
 Multi-State initialization phase begins for group   1
--------------------------------------------------------------------------------
********************************************************************************
 Compute H0 matrices for state    1
--------------------------------------------------------------------------------
--------------------------------------------------------------------------------
 H0 matrices have been computed.
 
********************************************************************************
  CASPT2 EQUATION SOLUTION
--------------------------------------------------------------------------------
 
  Total nr of CASPT2 parameters:
   Before reduction:        2100
   After  reduction:        1232
 
 The contributions to the second order correlation energy in atomic units.
-----------------------------------------------------------------------------------------------------------------------------
  IT.      VJTU        VJTI        ATVX        AIVX        VJAI        BVAT        BJAT        BJAI        TOTAL       RNORM  
-----------------------------------------------------------------------------------------------------------------------------
-------------------------------------------------------------------------------------------------------------------
 
  FINAL CASPT2 RESULT:
 
  Correlation energy /Case, /Symm, and sums:
 VJTU     -0.00000000 -0.00000000
 VJTIP    -0.00120579 -0.00120579
 VJTIM     0.00000000  0.00000000
 ATVX     -0.00000000 -0.00000000
 AIVX     -0.05287778 -0.05287778
 VJAIP    -0.00000000 -0.00000000
 VJAIM    -0.00000000 -0.00000000
 BVATP    -0.00060592 -0.00060592
 BVATM    -0.00000419 -0.00000419
 BJATP    -0.00000000 -0.00000000
 BJATM    -0.00000000 -0.00000000
 BJAIP    -0.03646426 -0.03646426
 BJAIM    -0.00652869 -0.00652869
 Summed:  -0.09768664 -0.09768664
 
      Reference energy:        -224.2827014157
      E2 (Non-variational):      -0.0976866350
      E2 (Variational):          -0.0976866350
      Total energy:            -224.3803880507
      Residual norm:              0.0000000002
      Reference weight:           0.95248
 
      Contributions to the CASPT2 correlation energy
      Active & Virtual Only:         -0.0006101140
      One Inactive Excited:          -0.0528777836
      Two Inactive Excited:          -0.0441987374
 
 
++ Denominators, etc.
----------------------------------------------------------------------------------------------------
 Report on small energy denominators, large coefficients, and large energy contributions.
CASE  SYMM ACTIVE-MIX  NON-ACTIVE INDICES          DENOMINATOR     RHS VALUE       COEFFICIENT     CONTRIBUTION
AIVX     1  Mu1.0005  In1.004 Se1.014               2.55704734     -0.08462666      0.03309555     -0.00280077
AIVX     1  Mu1.0003  In1.005 Se1.014               2.00842841     -0.05496545      0.02736740     -0.00150426
AIVX     1  Mu1.0004  In1.006 Se1.014               1.78387079     -0.07348944      0.04119678     -0.00302753
AIVX     1  Mu1.0005  In1.006 Se1.014               1.93813117      0.07290673     -0.03761723     -0.00274255
AIVX     1  Mu1.0002  In1.008 Se1.014               1.21177364      0.11562096     -0.09541465     -0.01103193
AIVX     1  Mu1.0003  In1.008 Se1.014               1.30414083      0.06834312     -0.05240471     -0.00358150
AIVX     1  Mu1.0007  In1.008 Se1.014               1.90693698     -0.05171647      0.02712018     -0.00140256
AIVX     1  Mu1.0002  In1.009 Se1.014               1.08676091     -0.03832518      0.03526551     -0.00135156
AIVX     1  Mu1.0004  In1.005 Se1.015               2.65032513     -0.07219263      0.02723922     -0.00196647
AIVX     1  Mu1.0001  In1.008 Se1.015               1.30885334      0.03595799     -0.02747124     -0.00098781
AIVX     1  Mu1.0004  In1.008 Se1.015               1.94603754      0.12600257     -0.06474843     -0.00815847
AIVX     1  Mu1.0005  In1.008 Se1.015               2.10029793     -0.08823839      0.04201251     -0.00370712
BJAIP    1  Se1.014 In1.004 Se1.015 In1.005         3.90346027     -0.09989469      0.02559131     -0.00255644
BJAIP    1  Se1.014 In1.006 Se1.014 In1.006         2.41808977      0.08072457     -0.03338357     -0.00269487
BJAIP    1  Se1.014 In1.004 Se1.015 In1.008         3.19917269      0.08035533     -0.02511750     -0.00201833
BJAIP    1  Se1.014 In1.006 Se1.015 In1.008         2.58025652     -0.09542036      0.03698090     -0.00352873
BJAIP    1  Se1.014 In1.008 Se1.014 In1.008         1.82033883      0.10560476     -0.05801380     -0.00612653
BJAIP    1  Se1.015 In1.008 Se1.015 In1.008         2.74242328      0.11150105     -0.04065777     -0.00453338
BJAIM    1  Se1.014 In1.006 Se1.014 In1.008         2.58025652     -0.09824610      0.03807599     -0.00374082
--
 
   (Skipping property calculation,
    use PROP keyword to activate)
--
 
  Total CASPT2 energies:
::    CASPT2 Root  1     Total energy:   -224.38038805
 
  A NEW JOBIPH FILE NAMED 'JOBMIX' IS PREPARED.
********************************************************************************
forrtl: warning (528): IEEE_UNDERFLOW is signaling
--- Stop Module: caspt2 at Sat Jan 25 14:09:43 2025 /rc=_RC_ALL_IS_WELL_ ---
*** files: xmldump
    saved to directory /home/grierjones/DDCASPT2/ozone/ANO-RCC-MB/ozone_167.00

>>> EXPORT i = B

>>> EXPORT j = P

>>> IF (-FILE GMJ_e2_${i}_${j}.csv)

>>> COPY /tmp/ozone_167.00/GMJ_RHS_B_P.csv /home/grierjones/DDCASPT2/ozone/ANO-RCC-MB/ozone_167.00/GMJ_RHS_B_P.csv

>>> COPY /tmp/ozone_167.00/GMJ_IVECW_B_P.csv /home/grierjones/DDCASPT2/ozone/ANO-RCC-MB/ozone_167.00/GMJ_IVECW_B_P.csv

>>> COPY /tmp/ozone_167.00/GMJ_IVECX_B_P.csv /home/grierjones/DDCASPT2/ozone/ANO-RCC-MB/ozone_167.00/GMJ_IVECX_B_P.csv

>>> COPY /tmp/ozone_167.00/GMJ_IVECC2_B_P.csv /home/grierjones/DDCASPT2/ozone/ANO-RCC-MB/ozone_167.00/GMJ_IVECC2_B_P.csv

>>> COPY /tmp/ozone_167.00/GMJ_e2_B_P.csv /home/grierjones/DDCASPT2/ozone/ANO-RCC-MB/ozone_167.00/GMJ_e2_B_P.csv

>>> END FOREACH

>>> EXPORT j = M

>>> IF (-FILE GMJ_e2_${i}_${j}.csv)
(Skipped)

>>> END FOREACH

>>> END FOREACH

>>> EXPORT i = E

>>> EXPORT j = P

>>> IF (-FILE GMJ_e2_${i}_${j}.csv)

>>> COPY /tmp/ozone_167.00/GMJ_RHS_E_P.csv /home/grierjones/DDCASPT2/ozone/ANO-RCC-MB/ozone_167.00/GMJ_RHS_E_P.csv

>>> COPY /tmp/ozone_167.00/GMJ_IVECW_E_P.csv /home/grierjones/DDCASPT2/ozone/ANO-RCC-MB/ozone_167.00/GMJ_IVECW_E_P.csv

>>> COPY /tmp/ozone_167.00/GMJ_IVECX_E_P.csv /home/grierjones/DDCASPT2/ozone/ANO-RCC-MB/ozone_167.00/GMJ_IVECX_E_P.csv

>>> COPY /tmp/ozone_167.00/GMJ_IVECC2_E_P.csv /home/grierjones/DDCASPT2/ozone/ANO-RCC-MB/ozone_167.00/GMJ_IVECC2_E_P.csv

>>> COPY /tmp/ozone_167.00/GMJ_e2_E_P.csv /home/grierjones/DDCASPT2/ozone/ANO-RCC-MB/ozone_167.00/GMJ_e2_E_P.csv

>>> END FOREACH

>>> EXPORT j = M

>>> IF (-FILE GMJ_e2_${i}_${j}.csv)

>>> COPY /tmp/ozone_167.00/GMJ_RHS_E_M.csv /home/grierjones/DDCASPT2/ozone/ANO-RCC-MB/ozone_167.00/GMJ_RHS_E_M.csv

>>> COPY /tmp/ozone_167.00/GMJ_IVECW_E_M.csv /home/grierjones/DDCASPT2/ozone/ANO-RCC-MB/ozone_167.00/GMJ_IVECW_E_M.csv

>>> COPY /tmp/ozone_167.00/GMJ_IVECX_E_M.csv /home/grierjones/DDCASPT2/ozone/ANO-RCC-MB/ozone_167.00/GMJ_IVECX_E_M.csv

>>> COPY /tmp/ozone_167.00/GMJ_IVECC2_E_M.csv /home/grierjones/DDCASPT2/ozone/ANO-RCC-MB/ozone_167.00/GMJ_IVECC2_E_M.csv

>>> COPY /tmp/ozone_167.00/GMJ_e2_E_M.csv /home/grierjones/DDCASPT2/ozone/ANO-RCC-MB/ozone_167.00/GMJ_e2_E_M.csv

>>> END FOREACH

>>> END FOREACH

>>> EXPORT i = F

>>> EXPORT j = P

>>> IF (-FILE GMJ_e2_${i}_${j}.csv)

>>> COPY /tmp/ozone_167.00/GMJ_RHS_F_P.csv /home/grierjones/DDCASPT2/ozone/ANO-RCC-MB/ozone_167.00/GMJ_RHS_F_P.csv

>>> COPY /tmp/ozone_167.00/GMJ_IVECW_F_P.csv /home/grierjones/DDCASPT2/ozone/ANO-RCC-MB/ozone_167.00/GMJ_IVECW_F_P.csv

>>> COPY /tmp/ozone_167.00/GMJ_IVECX_F_P.csv /home/grierjones/DDCASPT2/ozone/ANO-RCC-MB/ozone_167.00/GMJ_IVECX_F_P.csv

>>> COPY /tmp/ozone_167.00/GMJ_IVECC2_F_P.csv /home/grierjones/DDCASPT2/ozone/ANO-RCC-MB/ozone_167.00/GMJ_IVECC2_F_P.csv

>>> COPY /tmp/ozone_167.00/GMJ_e2_F_P.csv /home/grierjones/DDCASPT2/ozone/ANO-RCC-MB/ozone_167.00/GMJ_e2_F_P.csv

>>> END FOREACH

>>> EXPORT j = M

>>> IF (-FILE GMJ_e2_${i}_${j}.csv)

>>> COPY /tmp/ozone_167.00/GMJ_RHS_F_M.csv /home/grierjones/DDCASPT2/ozone/ANO-RCC-MB/ozone_167.00/GMJ_RHS_F_M.csv

>>> COPY /tmp/ozone_167.00/GMJ_IVECW_F_M.csv /home/grierjones/DDCASPT2/ozone/ANO-RCC-MB/ozone_167.00/GMJ_IVECW_F_M.csv

>>> COPY /tmp/ozone_167.00/GMJ_IVECX_F_M.csv /home/grierjones/DDCASPT2/ozone/ANO-RCC-MB/ozone_167.00/GMJ_IVECX_F_M.csv

>>> COPY /tmp/ozone_167.00/GMJ_IVECC2_F_M.csv /home/grierjones/DDCASPT2/ozone/ANO-RCC-MB/ozone_167.00/GMJ_IVECC2_F_M.csv

>>> COPY /tmp/ozone_167.00/GMJ_e2_F_M.csv /home/grierjones/DDCASPT2/ozone/ANO-RCC-MB/ozone_167.00/GMJ_e2_F_M.csv

>>> END FOREACH

>>> END FOREACH

>>> EXPORT i = G

>>> EXPORT j = P

>>> IF (-FILE GMJ_e2_${i}_${j}.csv)

>>> COPY /tmp/ozone_167.00/GMJ_RHS_G_P.csv /home/grierjones/DDCASPT2/ozone/ANO-RCC-MB/ozone_167.00/GMJ_RHS_G_P.csv

>>> COPY /tmp/ozone_167.00/GMJ_IVECW_G_P.csv /home/grierjones/DDCASPT2/ozone/ANO-RCC-MB/ozone_167.00/GMJ_IVECW_G_P.csv

>>> COPY /tmp/ozone_167.00/GMJ_IVECX_G_P.csv /home/grierjones/DDCASPT2/ozone/ANO-RCC-MB/ozone_167.00/GMJ_IVECX_G_P.csv

>>> COPY /tmp/ozone_167.00/GMJ_IVECC2_G_P.csv /home/grierjones/DDCASPT2/ozone/ANO-RCC-MB/ozone_167.00/GMJ_IVECC2_G_P.csv

>>> COPY /tmp/ozone_167.00/GMJ_e2_G_P.csv /home/grierjones/DDCASPT2/ozone/ANO-RCC-MB/ozone_167.00/GMJ_e2_G_P.csv

>>> END FOREACH

>>> EXPORT j = M

>>> IF (-FILE GMJ_e2_${i}_${j}.csv)

>>> COPY /tmp/ozone_167.00/GMJ_RHS_G_M.csv /home/grierjones/DDCASPT2/ozone/ANO-RCC-MB/ozone_167.00/GMJ_RHS_G_M.csv

>>> COPY /tmp/ozone_167.00/GMJ_IVECW_G_M.csv /home/grierjones/DDCASPT2/ozone/ANO-RCC-MB/ozone_167.00/GMJ_IVECW_G_M.csv

>>> COPY /tmp/ozone_167.00/GMJ_IVECX_G_M.csv /home/grierjones/DDCASPT2/ozone/ANO-RCC-MB/ozone_167.00/GMJ_IVECX_G_M.csv

>>> COPY /tmp/ozone_167.00/GMJ_IVECC2_G_M.csv /home/grierjones/DDCASPT2/ozone/ANO-RCC-MB/ozone_167.00/GMJ_IVECC2_G_M.csv

>>> COPY /tmp/ozone_167.00/GMJ_e2_G_M.csv /home/grierjones/DDCASPT2/ozone/ANO-RCC-MB/ozone_167.00/GMJ_e2_G_M.csv

>>> END FOREACH

>>> END FOREACH

>>> EXPORT i = H

>>> EXPORT j = P

>>> IF (-FILE GMJ_e2_${i}_${j}.csv)

>>> COPY /tmp/ozone_167.00/GMJ_RHS_H_P.csv /home/grierjones/DDCASPT2/ozone/ANO-RCC-MB/ozone_167.00/GMJ_RHS_H_P.csv

>>> COPY /tmp/ozone_167.00/GMJ_IVECW_H_P.csv /home/grierjones/DDCASPT2/ozone/ANO-RCC-MB/ozone_167.00/GMJ_IVECW_H_P.csv

>>> COPY /tmp/ozone_167.00/GMJ_IVECX_H_P.csv /home/grierjones/DDCASPT2/ozone/ANO-RCC-MB/ozone_167.00/GMJ_IVECX_H_P.csv

>>> COPY /tmp/ozone_167.00/GMJ_IVECC2_H_P.csv /home/grierjones/DDCASPT2/ozone/ANO-RCC-MB/ozone_167.00/GMJ_IVECC2_H_P.csv

>>> COPY /tmp/ozone_167.00/GMJ_e2_H_P.csv /home/grierjones/DDCASPT2/ozone/ANO-RCC-MB/ozone_167.00/GMJ_e2_H_P.csv

>>> END FOREACH

>>> EXPORT j = M

>>> IF (-FILE GMJ_e2_${i}_${j}.csv)

>>> COPY /tmp/ozone_167.00/GMJ_RHS_H_M.csv /home/grierjones/DDCASPT2/ozone/ANO-RCC-MB/ozone_167.00/GMJ_RHS_H_M.csv

>>> COPY /tmp/ozone_167.00/GMJ_IVECW_H_M.csv /home/grierjones/DDCASPT2/ozone/ANO-RCC-MB/ozone_167.00/GMJ_IVECW_H_M.csv

>>> COPY /tmp/ozone_167.00/GMJ_IVECX_H_M.csv /home/grierjones/DDCASPT2/ozone/ANO-RCC-MB/ozone_167.00/GMJ_IVECX_H_M.csv

>>> COPY /tmp/ozone_167.00/GMJ_IVECC2_H_M.csv /home/grierjones/DDCASPT2/ozone/ANO-RCC-MB/ozone_167.00/GMJ_IVECC2_H_M.csv

>>> COPY /tmp/ozone_167.00/GMJ_e2_H_M.csv /home/grierjones/DDCASPT2/ozone/ANO-RCC-MB/ozone_167.00/GMJ_e2_H_M.csv

>>> END FOREACH

>>> END FOREACH

>>> EXPORT i = A

>>> IF (-FILE GMJ_e2_$i.csv)

>>> COPY /tmp/ozone_167.00/GMJ_RHS_A.csv /home/grierjones/DDCASPT2/ozone/ANO-RCC-MB/ozone_167.00/GMJ_RHS_A.csv

>>> COPY /tmp/ozone_167.00/GMJ_IVECW_A.csv /home/grierjones/DDCASPT2/ozone/ANO-RCC-MB/ozone_167.00/GMJ_IVECW_A.csv

>>> COPY /tmp/ozone_167.00/GMJ_IVECX_A.csv /home/grierjones/DDCASPT2/ozone/ANO-RCC-MB/ozone_167.00/GMJ_IVECX_A.csv

>>> COPY /tmp/ozone_167.00/GMJ_IVECC2_A.csv /home/grierjones/DDCASPT2/ozone/ANO-RCC-MB/ozone_167.00/GMJ_IVECC2_A.csv

>>> COPY /tmp/ozone_167.00/GMJ_e2_A.csv /home/grierjones/DDCASPT2/ozone/ANO-RCC-MB/ozone_167.00/GMJ_e2_A.csv

>>> END FOREACH

>>> EXPORT i = C

>>> IF (-FILE GMJ_e2_$i.csv)

>>> COPY /tmp/ozone_167.00/GMJ_RHS_C.csv /home/grierjones/DDCASPT2/ozone/ANO-RCC-MB/ozone_167.00/GMJ_RHS_C.csv

>>> COPY /tmp/ozone_167.00/GMJ_IVECW_C.csv /home/grierjones/DDCASPT2/ozone/ANO-RCC-MB/ozone_167.00/GMJ_IVECW_C.csv

>>> COPY /tmp/ozone_167.00/GMJ_IVECX_C.csv /home/grierjones/DDCASPT2/ozone/ANO-RCC-MB/ozone_167.00/GMJ_IVECX_C.csv

>>> COPY /tmp/ozone_167.00/GMJ_IVECC2_C.csv /home/grierjones/DDCASPT2/ozone/ANO-RCC-MB/ozone_167.00/GMJ_IVECC2_C.csv

>>> COPY /tmp/ozone_167.00/GMJ_e2_C.csv /home/grierjones/DDCASPT2/ozone/ANO-RCC-MB/ozone_167.00/GMJ_e2_C.csv

>>> END FOREACH

>>> EXPORT i = D

>>> IF (-FILE GMJ_e2_$i.csv)

>>> COPY /tmp/ozone_167.00/GMJ_RHS_D.csv /home/grierjones/DDCASPT2/ozone/ANO-RCC-MB/ozone_167.00/GMJ_RHS_D.csv

>>> COPY /tmp/ozone_167.00/GMJ_IVECW_D.csv /home/grierjones/DDCASPT2/ozone/ANO-RCC-MB/ozone_167.00/GMJ_IVECW_D.csv

>>> COPY /tmp/ozone_167.00/GMJ_IVECX_D.csv /home/grierjones/DDCASPT2/ozone/ANO-RCC-MB/ozone_167.00/GMJ_IVECX_D.csv

>>> COPY /tmp/ozone_167.00/GMJ_IVECC2_D.csv /home/grierjones/DDCASPT2/ozone/ANO-RCC-MB/ozone_167.00/GMJ_IVECC2_D.csv

>>> COPY /tmp/ozone_167.00/GMJ_e2_D.csv /home/grierjones/DDCASPT2/ozone/ANO-RCC-MB/ozone_167.00/GMJ_e2_D.csv

>>> END FOREACH

.########################.
.# Non-zero return code #.
.########################.

    Timing: Wall=1.08 User=0.81 System=0.26
********************************************
*** WorkDir at /tmp/ozone_167.00 cleaned ***
********************************************
