[Molden Format]
[N_Atoms]
                     2
[Atoms] (AU)
B1          1      5           0.00000000      0.00000000      0.00000000
BE2         2      4           0.00000000      0.00000000      3.77945225
[Charge] (Mulliken)
 -8.723275292684196E-002
  8.723275292680510E-002
[GTO] (AU)
   1
   s  14
  3.336021700E+04  1.039699991E-04
  4.972095200E+03  5.254399956E-04
  1.125641700E+03  2.509059979E-03
  3.164913600E+02  1.031887991E-02
  1.020072600E+02  3.636632969E-02
  3.629587300E+01  1.064607991E-01
  1.397141000E+01  2.403999880E-01
  5.741156000E+00  3.748581168E-01
  2.494268000E+00  3.100066974E-01
  1.114202000E+00  7.922455933E-02
  4.215490000E-01 -4.947589958E-03
  1.696330000E-01 -7.737119935E-03
  6.853500000E-02 -1.501079987E-03
  2.398700000E-02 -1.333299989E-04
   s  14
  3.336021700E+04 -2.030000008E-05
  4.972095200E+03 -1.025700004E-04
  1.125641700E+03 -4.911300020E-04
  3.164913600E+02 -2.026570008E-03
  1.020072600E+02 -7.261010030E-03
  3.629587300E+01 -2.197722009E-02
  1.397141000E+01 -5.408428022E-02
  5.741156000E+00 -1.022402604E-01
  2.494268000E+00 -1.423595206E-01
  1.114202000E+00 -4.658690019E-02
  4.215490000E-01  3.799402916E-01
  1.696330000E-01  5.890463624E-01
  6.853500000E-02  1.749075107E-01
  2.398700000E-02 -1.142030005E-03
   p   9
  5.500000000E+01  1.229800005E-03
  1.336610100E+01  8.827380035E-03
  4.135394000E+00  3.843340015E-02
  1.481256000E+00  1.150031805E-01
  6.021360000E-01  2.733674011E-01
  2.556360000E-01  4.061972116E-01
  1.111510000E-01  3.014967912E-01
  4.764800000E-02  7.684809030E-02
  1.667700000E-02 -8.170000032E-06
 
   2
   s  14
  2.262859900E+04  8.443999941E-05
  3.372318100E+03  4.601499968E-04
  7.603504000E+02  2.285389984E-03
  2.117404800E+02  9.648129932E-03
  6.722346800E+01  3.494469975E-02
  2.337217700E+01  1.061099893E-01
  8.721373000E+00  2.458240383E-01
  3.468091000E+00  3.862428773E-01
  1.452144000E+00  3.105526078E-01
  6.086150000E-01  6.415933955E-02
  2.576860000E-01 -2.265049984E-03
  1.041760000E-01 -5.217499963E-04
  4.242700000E-02 -8.757499938E-04
  1.484900000E-02  1.242199991E-04
   s  14
  2.262859900E+04 -1.586999994E-05
  3.372318100E+03 -8.656999968E-05
  7.603504000E+02 -4.302199984E-04
  2.117404800E+02 -1.825079993E-03
  6.722346800E+01 -6.682749976E-03
  2.337217700E+01 -2.095119992E-02
  8.721373000E+00 -5.200308981E-02
  3.468091000E+00 -9.849176964E-02
  1.452144000E+00 -1.355800695E-01
  6.086150000E-01 -6.429875976E-02
  2.576860000E-01  3.125414989E-01
  1.041760000E-01  6.270468577E-01
  4.242700000E-02  2.110231492E-01
  1.484900000E-02 -4.104669985E-03
   p   9
  3.371018400E+01  1.069960000E-03
  8.057649500E+00  6.828550001E-03
  2.836471400E+00  2.119065000E-02
  1.099965700E+00  5.843696001E-02
  4.433964000E-01  2.020920800E-01
  1.822264000E-01  4.582953101E-01
  7.572410000E-02  3.691239601E-01
  3.168540000E-02  6.611471001E-02
  1.108990000E-02  1.405160000E-03
 
[MO]
Sym=     1a  
Ene=    -7.6432
Spin= Alpha
Occup=    1.00000
   1         0.99998856
   2         0.01523542
   3         0.00000021
   4         0.00000003
   5         0.00150141
   6        -0.00022312
   7        -0.00095210
   8         0.00000003
   9        -0.00000007
  10         0.00084119
Sym=     1a  
Ene=    -7.6432
Spin= Beta
Occup=    1.00000
   1         0.99998856
   2         0.01523542
   3         0.00000021
   4         0.00000003
   5         0.00150141
   6        -0.00022312
   7        -0.00095210
   8         0.00000003
   9        -0.00000007
  10         0.00084119
Sym=     2a  
Ene=    -4.7380
Spin= Alpha
Occup=    1.00000
   1        -0.00011048
   2         0.00035363
   3        -0.00000011
   4         0.00000008
   5         0.00021573
   6         0.99996650
   7         0.00241805
   8         0.00000057
   9        -0.00000054
  10        -0.00045180
Sym=     2a  
Ene=    -4.7380
Spin= Beta
Occup=    1.00000
   1        -0.00011048
   2         0.00035363
   3        -0.00000011
   4         0.00000008
   5         0.00021573
   6         0.99996650
   7         0.00241805
   8         0.00000057
   9        -0.00000054
  10        -0.00045180
Sym=     3a  
Ene=    -0.5453
Spin= Alpha
Occup=    1.00000
   1        -0.03399780
   2         0.75992029
   3         0.00002061
   4        -0.00001997
   5         0.10613952
   6        -0.03833024
   7         0.30158460
   8         0.00001285
   9        -0.00001070
  10        -0.13186859
Sym=     3a  
Ene=    -0.5453
Spin= Beta
Occup=    1.00000
   1        -0.03399780
   2         0.75992029
   3         0.00002061
   4        -0.00001997
   5         0.10613952
   6        -0.03833024
   7         0.30158460
   8         0.00001285
   9        -0.00001070
  10        -0.13186859
Sym=     4a  
Ene=    -0.2743
Spin= Alpha
Occup=    1.00000
   1         0.01928421
   2         0.58841318
   3         0.00002548
   4        -0.00003047
   5        -0.31566356
   6         0.00446137
   7        -0.82618000
   8         0.00008776
   9        -0.00006970
  10        -0.09840314
Sym=     4a  
Ene=    -0.2743
Spin= Beta
Occup=    1.00000
   1         0.01928421
   2         0.58841318
   3         0.00002548
   4        -0.00003047
   5        -0.31566356
   6         0.00446137
   7        -0.82618000
   8         0.00008776
   9        -0.00006970
  10        -0.09840314
Sym=     5a  
Ene=     0.0601
Spin= Alpha
Occup=    0.00000
   1         0.02353666
   2         0.21514121
   3         0.35663131
   4        -0.03421970
   5        -0.51276214
   6         0.03167946
   7         0.31295530
   8        -0.52235176
   9         0.26620573
  10         0.51449683
Sym=     5a  
Ene=     0.0601
Spin= Beta
Occup=    0.00000
   1         0.02353666
   2         0.21514121
   3         0.35663131
   4        -0.03421970
   5        -0.51276214
   6         0.03167946
   7         0.31295530
   8        -0.52235176
   9         0.26620573
  10         0.51449683
Sym=     6a  
Ene=    -0.0000
Spin= Alpha
Occup=    1.00000
   1        -0.00000604
   2        -0.00013219
   3         0.75265895
   4        -0.46519126
   5         0.00022458
   6        -0.00001283
   7        -0.00005982
   8         0.23618340
   9        -0.14596983
  10        -0.00013168
Sym=     6a  
Ene=    -0.0000
Spin= Beta
Occup=    0.00000
   1        -0.00000604
   2        -0.00013219
   3         0.75265895
   4        -0.46519126
   5         0.00022458
   6        -0.00001283
   7        -0.00005982
   8         0.23618340
   9        -0.14596983
  10        -0.00013168
Sym=     7a  
Ene=     0.0370
Spin= Alpha
Occup=    0.00000
   1         0.00301309
   2         0.02747205
   3        -0.28570607
   4        -0.45767078
   5        -0.06182321
   6         0.00376319
   7         0.03745389
   8        -0.36239467
   9        -0.59480054
  10         0.06445112
Sym=     7a  
Ene=     0.0370
Spin= Beta
Occup=    0.00000
   1         0.00301309
   2         0.02747205
   3        -0.28570607
   4        -0.45767078
   5        -0.06182321
   6         0.00376319
   7         0.03745389
   8        -0.36239467
   9        -0.59480054
  10         0.06445112
Sym=     8a  
Ene=     0.1069
Spin= Alpha
Occup=    0.00000
   1         0.01827639
   2         0.16663786
   3        -0.40005305
   4         0.19347098
   5        -0.37013684
   6         0.02245131
   7         0.22377775
   8         0.74326521
   9        -0.32770406
  10         0.38911802
Sym=     8a  
Ene=     0.1069
Spin= Beta
Occup=    0.00000
   1         0.01827639
   2         0.16663786
   3        -0.40005305
   4         0.19347098
   5        -0.37013684
   6         0.02245131
   7         0.22377775
   8         0.74326521
   9        -0.32770406
  10         0.38911802
Sym=     9a  
Ene=     0.1893
Spin= Alpha
Occup=    0.00000
   1         0.00167789
   2         0.01529133
   3        -0.39116629
   4        -0.78988033
   5        -0.03308517
   6         0.00199259
   7         0.01990849
   8         0.27556519
   9         0.73145158
  10         0.03537951
Sym=     9a  
Ene=     0.1893
Spin= Beta
Occup=    0.00000
   1         0.00167789
   2         0.01529133
   3        -0.39116629
   4        -0.78988033
   5        -0.03308517
   6         0.00199259
   7         0.01990849
   8         0.27556519
   9         0.73145158
  10         0.03537951
Sym=    10a  
Ene=     0.4176
Spin= Alpha
Occup=    0.00000
   1        -0.11115834
   2        -0.97081270
   3        -0.00395248
   4         0.00026208
   5        -1.01819983
   6         0.11413620
   7         0.89525758
   8         0.00593828
   9        -0.00259725
  10        -1.14860660
Sym=    10a  
Ene=     0.4176
Spin= Beta
Occup=    0.00000
   1        -0.11115834
   2        -0.97081270
   3        -0.00395248
   4         0.00026208
   5        -1.01819983
   6         0.11413620
   7         0.89525758
   8         0.00593828
   9        -0.00259725
  10        -1.14860660
