[Molden Format]
[N_Atoms]
                     2
[Atoms] (AU)
B1          1      5           0.00000000      0.00000000      0.00000000
O2          2      8           0.00000000      0.00000000      2.07869874
[Charge] (Mulliken)
  0.652928163679730     
 -0.652928163679757     
[GTO] (AU)
   1
   s  14
  3.336021700E+04  1.039699991E-04
  4.972095200E+03  5.254399956E-04
  1.125641700E+03  2.509059979E-03
  3.164913600E+02  1.031887991E-02
  1.020072600E+02  3.636632969E-02
  3.629587300E+01  1.064607991E-01
  1.397141000E+01  2.403999880E-01
  5.741156000E+00  3.748581168E-01
  2.494268000E+00  3.100066974E-01
  1.114202000E+00  7.922455933E-02
  4.215490000E-01 -4.947589958E-03
  1.696330000E-01 -7.737119935E-03
  6.853500000E-02 -1.501079987E-03
  2.398700000E-02 -1.333299989E-04
   s  14
  3.336021700E+04 -2.030000008E-05
  4.972095200E+03 -1.025700004E-04
  1.125641700E+03 -4.911300020E-04
  3.164913600E+02 -2.026570008E-03
  1.020072600E+02 -7.261010030E-03
  3.629587300E+01 -2.197722009E-02
  1.397141000E+01 -5.408428022E-02
  5.741156000E+00 -1.022402604E-01
  2.494268000E+00 -1.423595206E-01
  1.114202000E+00 -4.658690019E-02
  4.215490000E-01  3.799402916E-01
  1.696330000E-01  5.890463624E-01
  6.853500000E-02  1.749075107E-01
  2.398700000E-02 -1.142030005E-03
   p   9
  5.500000000E+01  1.229800005E-03
  1.336610100E+01  8.827380035E-03
  4.135394000E+00  3.843340015E-02
  1.481256000E+00  1.150031805E-01
  6.021360000E-01  2.733674011E-01
  2.556360000E-01  4.061972116E-01
  1.111510000E-01  3.014967912E-01
  4.764800000E-02  7.684809030E-02
  1.667700000E-02 -8.170000032E-06
 
   2
   s  14
  1.053749500E+05  1.238600013E-04
  1.567924000E+04  5.120100053E-04
  3.534544700E+03  2.152910022E-03
  9.873651600E+02  8.528440089E-03
  3.159787500E+02  3.018049031E-02
  1.116542800E+02  9.099702095E-02
  4.269945100E+01  2.177936423E-01
  1.739559600E+01  3.686245738E-01
  7.438309000E+00  3.366707335E-01
  3.222862000E+00  9.657630101E-02
  1.253877000E+00  2.144520022E-03
  4.951550000E-01  1.194350012E-03
  1.916650000E-01  5.390200056E-04
  6.708300000E-02  2.103400022E-04
   s  14
  1.053749500E+05 -2.815000008E-05
  1.567924000E+04 -1.163000003E-04
  3.534544700E+03 -4.909200013E-04
  9.873651600E+02 -1.946160005E-03
  3.159787500E+02 -7.005300019E-03
  1.116542800E+02 -2.167814006E-02
  4.269945100E+01 -5.641213015E-02
  1.739559600E+01 -1.127053003E-01
  7.438309000E+00 -1.589119704E-01
  3.222862000E+00 -3.355083009E-02
  1.253877000E+00  3.531902810E-01
  4.951550000E-01  5.534199315E-01
  1.916650000E-01  2.301839106E-01
  6.708300000E-02  1.127267003E-02
   p   9
  2.000000000E+02  9.173000030E-04
  4.653336700E+01  7.377140024E-03
  1.462180900E+01  3.483515011E-02
  5.313064000E+00  1.144397004E-01
  2.102525000E+00  2.554966408E-01
  8.502230000E-01  3.722557412E-01
  3.375970000E-01  3.323314911E-01
  1.288920000E-01  1.400847905E-01
  4.511200000E-02  2.395784008E-02
 
[MO]
Sym=     1a  
Ene=   -20.6460
Spin= Alpha
Occup=    1.00000
   1        -0.00052840
   2        -0.00171178
   3         0.00000000
   4         0.00000000
   5        -0.00096824
   6         1.00020012
   7         0.00172082
   8        -0.00000000
   9        -0.00000000
  10        -0.00249669
Sym=     1a  
Ene=   -20.6580
Spin= Beta
Occup=    1.00000
   1        -0.00063533
   2        -0.00201599
   3         0.00000000
   4         0.00000000
   5        -0.00128646
   6         1.00024997
   7         0.00262939
   8         0.00000000
   9        -0.00000000
  10        -0.00264010
Sym=     2a  
Ene=    -7.8695
Spin= Alpha
Occup=    1.00000
   1         0.99893447
   2         0.01398897
   3        -0.00000000
   4        -0.00000000
   5         0.00078598
   6        -0.00098383
   7         0.00346990
   8        -0.00000000
   9         0.00000000
  10        -0.00460974
Sym=     2a  
Ene=    -7.8375
Spin= Beta
Occup=    1.00000
   1         0.99906170
   2         0.01303625
   3         0.00000000
   4        -0.00000000
   5         0.00184195
   6        -0.00101328
   7         0.00289730
   8        -0.00000000
   9         0.00000000
  10        -0.00416126
Sym=     3a  
Ene=    -1.4519
Spin= Alpha
Occup=    1.00000
   1        -0.11345425
   2         0.10389481
   3        -0.00000000
   4         0.00000000
   5         0.14039139
   6        -0.02117224
   7         0.81107512
   8        -0.00000000
   9        -0.00000000
  10        -0.28739581
Sym=     3a  
Ene=    -1.4769
Spin= Beta
Occup=    1.00000
   1        -0.11235117
   2         0.06906653
   3        -0.00000000
   4         0.00000000
   5         0.12841880
   6        -0.01832309
   7         0.84729719
   8        -0.00000000
   9         0.00000000
  10        -0.26779431
Sym=     4a  
Ene=    -0.6887
Spin= Alpha
Occup=    1.00000
   1         0.08424654
   2        -0.31639954
   3         0.00000000
   4        -0.00000000
   5        -0.01741447
   6         0.02255916
   7         0.49517087
   8         0.00000000
   9        -0.00000000
  10         0.79960999
Sym=     4a  
Ene=    -0.6829
Spin= Beta
Occup=    1.00000
   1         0.09508982
   2        -0.14431282
   3         0.00000000
   4        -0.00000000
   5        -0.16193766
   6         0.02620191
   7         0.46820870
   8         0.00000000
   9        -0.00000000
  10         0.87634668
Sym=     5a  
Ene=    -0.5899
Spin= Alpha
Occup=    1.00000
   1         0.00000000
   2         0.00000000
   3         0.44226862
   4         0.09738574
   5        -0.00000000
   6         0.00000000
   7        -0.00000000
   8         0.71560443
   9         0.15757317
  10         0.00000000
Sym=     5a  
Ene=    -0.6274
Spin= Beta
Occup=    1.00000
   1        -0.00000000
   2         0.00000000
   3         0.27329036
   4         0.06913551
   5         0.00000000
   6        -0.00000000
   7        -0.00000000
   8         0.82995110
   9         0.20995651
  10        -0.00000000
Sym=     6a  
Ene=    -0.5899
Spin= Alpha
Occup=    1.00000
   1        -0.00000000
   2        -0.00000000
   3        -0.09738574
   4         0.44226862
   5         0.00000000
   6        -0.00000000
   7         0.00000000
   8        -0.15757317
   9         0.71560443
  10        -0.00000000
Sym=     6a  
Ene=    -0.6274
Spin= Beta
Occup=    1.00000
   1         0.00000000
   2        -0.00000000
   3        -0.06913551
   4         0.27329036
   5        -0.00000000
   6         0.00000000
   7         0.00000000
   8        -0.20995651
   9         0.82995110
  10         0.00000000
Sym=     7a  
Ene=    -0.5594
Spin= Alpha
Occup=    1.00000
   1         0.04650205
   2         0.79531632
   3        -0.00000000
   4         0.00000000
   5        -0.60619717
   6         0.01175499
   7         0.04030127
   8        -0.00000000
   9         0.00000000
  10         0.41007236
Sym=     7a  
Ene=     0.0008
Spin= Beta
Occup=    0.00000
   1         0.03754521
   2         0.91177985
   3         0.00000000
   4        -0.00000000
   5        -0.51238058
   6        -0.00500920
   7        -0.12999466
   8        -0.00000000
   9         0.00000000
  10         0.26165561
Sym=     8a  
Ene=     0.1788
Spin= Alpha
Occup=    0.00000
   1         0.00000000
   2         0.00000000
   3        -0.95589529
   4        -0.24331212
   5        -0.00000000
   6         0.00000000
   7         0.00000000
   8         0.77594688
   9         0.19750833
  10         0.00000000
Sym=     8a  
Ene=     0.2286
Spin= Beta
Occup=    0.00000
   1         0.00000000
   2         0.00000000
   3        -0.94119055
   4        -0.46121047
   5        -0.00000000
   6         0.00000000
   7         0.00000000
   8         0.59910922
   9         0.29358077
  10         0.00000000
Sym=     9a  
Ene=     0.1788
Spin= Alpha
Occup=    0.00000
   1        -0.00000000
   2        -0.00000000
   3         0.24331212
   4        -0.95589529
   5         0.00000000
   6         0.00000000
   7         0.00000000
   8        -0.19750833
   9         0.77594688
  10        -0.00000000
Sym=     9a  
Ene=     0.2286
Spin= Beta
Occup=    0.00000
   1        -0.00000000
   2        -0.00000000
   3         0.46121047
   4        -0.94119055
   5         0.00000000
   6         0.00000000
   7         0.00000000
   8        -0.29358077
   9         0.59910922
  10        -0.00000000
Sym=    10a  
Ene=     0.7260
Spin= Alpha
Occup=    0.00000
   1         0.20009830
   2         1.17548679
   3        -0.00000000
   4        -0.00000000
   5         1.27635770
   6        -0.19840665
   7        -1.34822044
   8         0.00000000
   9         0.00000000
  10         0.74069087
Sym=    10a  
Ene=     0.7638
Spin= Beta
Occup=    0.00000
   1         0.19708446
   2         1.12618195
   3         0.00000000
   4        -0.00000000
   5         1.30817601
   6        -0.19827609
   7        -1.32978524
   8         0.00000000
   9         0.00000000
  10         0.72842092
