[Molden Format]
[N_Atoms]
                     2
[Atoms] (AU)
BE1         1      4           0.00000000      0.00000000      0.00000000
LI2         2      3           0.00000000      0.00000000      5.29123315
[Charge] (Mulliken)
 -3.769374820443616E-002
  3.769374820441751E-002
[GTO] (AU)
   1
   s  14
  2.262859900E+04  8.443999941E-05
  3.372318100E+03  4.601499968E-04
  7.603504000E+02  2.285389984E-03
  2.117404800E+02  9.648129932E-03
  6.722346800E+01  3.494469975E-02
  2.337217700E+01  1.061099893E-01
  8.721373000E+00  2.458240383E-01
  3.468091000E+00  3.862428773E-01
  1.452144000E+00  3.105526078E-01
  6.086150000E-01  6.415933955E-02
  2.576860000E-01 -2.265049984E-03
  1.041760000E-01 -5.217499963E-04
  4.242700000E-02 -8.757499938E-04
  1.484900000E-02  1.242199991E-04
   s  14
  2.262859900E+04 -1.586999994E-05
  3.372318100E+03 -8.656999968E-05
  7.603504000E+02 -4.302199984E-04
  2.117404800E+02 -1.825079993E-03
  6.722346800E+01 -6.682749976E-03
  2.337217700E+01 -2.095119992E-02
  8.721373000E+00 -5.200308981E-02
  3.468091000E+00 -9.849176964E-02
  1.452144000E+00 -1.355800695E-01
  6.086150000E-01 -6.429875976E-02
  2.576860000E-01  3.125414989E-01
  1.041760000E-01  6.270468577E-01
  4.242700000E-02  2.110231492E-01
  1.484900000E-02 -4.104669985E-03
   p   9
  3.371018400E+01  1.069960000E-03
  8.057649500E+00  6.828550001E-03
  2.836471400E+00  2.119065000E-02
  1.099965700E+00  5.843696001E-02
  4.433964000E-01  2.020920800E-01
  1.822264000E-01  4.582953101E-01
  7.572410000E-02  3.691239601E-01
  3.168540000E-02  6.611471001E-02
  1.108990000E-02  1.405160000E-03
 
   2
   s  14
  9.497934400E+03  9.668999974E-05
  1.416811200E+03  6.087099984E-04
  3.214599400E+02  3.101519992E-03
  9.112416300E+01  1.266904997E-02
  2.999989100E+01  4.248012989E-02
  1.101763100E+01  1.150183297E-01
  4.372801000E+00  2.398650094E-01
  1.831256000E+00  3.584300090E-01
  8.022610000E-01  3.048527792E-01
  3.626480000E-01  8.824261976E-02
  1.139950000E-01 -8.445899977E-04
  5.123700000E-02 -7.943959979E-03
  2.246800000E-02 -3.764419990E-03
  7.860000000E-03 -8.868999976E-05
   s  14
  9.497934400E+03 -1.244999993E-05
  1.416811200E+03 -7.838999954E-05
  3.214599400E+02 -4.007099976E-04
  9.112416300E+01 -1.645249990E-03
  2.999989100E+01 -5.634599967E-03
  1.101763100E+01 -1.590780991E-02
  4.372801000E+00 -3.612581979E-02
  1.831256000E+00 -6.459927962E-02
  8.022610000E-01 -1.008321794E-01
  3.626480000E-01 -9.757613942E-02
  1.139950000E-01  2.301215886E-01
  5.123700000E-02  6.102389764E-01
  2.246800000E-02  2.849406083E-01
  7.860000000E-03  4.026899976E-03
   p   9
  1.311950400E+01  1.524940000E-03
  3.077424200E+00  8.314830000E-03
  1.098800500E+00  1.933203000E-02
  4.357784000E-01  4.934293000E-02
  1.802432000E-01  1.623554000E-01
  7.613330000E-02  3.847505400E-01
  3.254650000E-02  4.336100400E-01
  1.401820000E-02  1.287005900E-01
  4.906400000E-03 -1.018520000E-03
 
[MO]
Sym=     1a  
Ene=    -4.6999
Spin= Alpha
Occup=    1.00000
   1         0.99993151
   2         0.00362236
   3        -0.00000002
   4        -0.00000001
   5        -0.00059557
   6        -0.00000655
   7         0.00062612
   8         0.00000000
   9         0.00000000
  10        -0.00047466
Sym=     1a  
Ene=    -4.6999
Spin= Beta
Occup=    1.00000
   1         0.99993151
   2         0.00362236
   3        -0.00000002
   4        -0.00000001
   5        -0.00059557
   6        -0.00000655
   7         0.00062612
   8         0.00000000
   9         0.00000000
  10        -0.00047466
Sym=     2a  
Ene=    -2.5128
Spin= Alpha
Occup=    1.00000
   1         0.00002823
   2         0.00212927
   3         0.00000000
   4         0.00000000
   5         0.00050133
   6         0.99980925
   7         0.01299001
   8         0.00000008
   9         0.00000003
  10         0.00115378
Sym=     2a  
Ene=    -2.5128
Spin= Beta
Occup=    1.00000
   1         0.00002823
   2         0.00212927
   3         0.00000000
   4         0.00000000
   5         0.00050133
   6         0.99980925
   7         0.01299001
   8         0.00000008
   9         0.00000003
  10         0.00115378
Sym=     3a  
Ene=    -0.3012
Spin= Alpha
Occup=    1.00000
   1        -0.02104604
   2         0.83760450
   3         0.00000190
   4         0.00000068
   5         0.05407911
   6        -0.03550917
   7         0.18701920
   8         0.00000140
   9         0.00000050
  10        -0.12953489
Sym=     3a  
Ene=    -0.3012
Spin= Beta
Occup=    1.00000
   1        -0.02104604
   2         0.83760450
   3         0.00000190
   4         0.00000068
   5         0.05407911
   6        -0.03550917
   7         0.18701920
   8         0.00000140
   9         0.00000050
  10        -0.12953489
Sym=     4a  
Ene=     0.0000
Spin= Alpha
Occup=    1.00000
   1         0.00000079
   2         0.00001051
   3         0.49720161
   4         0.17864852
   5        -0.00000980
   6         0.00000056
   7        -0.00002506
   8         0.67061585
   9         0.24095764
  10        -0.00000276
Sym=     4a  
Ene=     0.0000
Spin= Beta
Occup=    0.00000
   1         0.00000079
   2         0.00001051
   3         0.49720161
   4         0.17864852
   5        -0.00000980
   6         0.00000056
   7        -0.00002506
   8         0.67061585
   9         0.24095764
  10        -0.00000276
Sym=     5a  
Ene=     0.0017
Spin= Alpha
Occup=    0.00000
   1         0.00594150
   2         0.27303735
   3        -0.00000858
   4        -0.00000308
   5        -0.18153744
   6         0.01480842
   7        -0.86849735
   8        -0.00002232
   9        -0.00000802
  10        -0.37495968
Sym=     5a  
Ene=     0.0017
Spin= Beta
Occup=    0.00000
   1         0.00594150
   2         0.27303735
   3        -0.00000858
   4        -0.00000308
   5        -0.18153744
   6         0.01480842
   7        -0.86849735
   8        -0.00002232
   9        -0.00000802
  10        -0.37495968
Sym=     6a  
Ene=     0.0441
Spin= Alpha
Occup=    0.00000
   1        -0.00000000
   2         0.00000000
   3        -0.10946647
   4         0.30465916
   5        -0.00000000
   6         0.00000000
   7        -0.00000000
   8        -0.29045090
   9         0.80836191
  10        -0.00000000
Sym=     6a  
Ene=     0.0441
Spin= Beta
Occup=    0.00000
   1        -0.00000000
   2         0.00000000
   3        -0.10946647
   4         0.30465916
   5        -0.00000000
   6         0.00000000
   7        -0.00000000
   8        -0.29045090
   9         0.80836191
  10        -0.00000000
Sym=     7a  
Ene=     0.0752
Spin= Alpha
Occup=    0.00000
   1         0.05676396
   2         0.56219210
   3         0.00000291
   4         0.00000105
   5        -0.60492219
   6         0.02199648
   7        -0.05801229
   8        -0.00001198
   9        -0.00000430
  10         0.74391840
Sym=     7a  
Ene=     0.0752
Spin= Beta
Occup=    0.00000
   1         0.05676396
   2         0.56219210
   3         0.00000291
   4         0.00000105
   5        -0.60492219
   6         0.02199648
   7        -0.05801229
   8        -0.00001198
   9        -0.00000430
  10         0.74391840
Sym=     8a  
Ene=     0.1262
Spin= Alpha
Occup=    0.00000
   1         0.00000039
   2         0.00000607
   3        -0.84590716
   4        -0.30394121
   5        -0.00000708
   6         0.00000029
   7        -0.00000459
   8         0.71627002
   9         0.25736155
  10         0.00000319
Sym=     8a  
Ene=     0.1262
Spin= Beta
Occup=    0.00000
   1         0.00000039
   2         0.00000607
   3        -0.84590716
   4        -0.30394121
   5        -0.00000708
   6         0.00000029
   7        -0.00000459
   8         0.71627002
   9         0.25736155
  10         0.00000319
Sym=     9a  
Ene=     0.1455
Spin= Alpha
Occup=    0.00000
   1        -0.00000000
   2        -0.00000000
   3         0.33513079
   4        -0.93271172
   5        -0.00000000
   6        -0.00000000
   7         0.00000000
   8        -0.19983450
   9         0.55616489
  10        -0.00000000
Sym=     9a  
Ene=     0.1455
Spin= Beta
Occup=    0.00000
   1        -0.00000000
   2        -0.00000000
   3         0.33513079
   4        -0.93271172
   5        -0.00000000
   6        -0.00000000
   7         0.00000000
   8        -0.19983450
   9         0.55616489
  10        -0.00000000
Sym=    10a  
Ene=     0.2337
Spin= Alpha
Occup=    0.00000
   1        -0.11302062
   2        -0.96067252
   3         0.00000103
   4         0.00000037
   5        -0.99041266
   6         0.08748813
   7         0.90599121
   8        -0.00000027
   9        -0.00000010
  10        -1.03948101
Sym=    10a  
Ene=     0.2337
Spin= Beta
Occup=    0.00000
   1        -0.11302062
   2        -0.96067252
   3         0.00000103
   4         0.00000037
   5        -0.99041266
   6         0.08748813
   7         0.90599121
   8        -0.00000027
   9        -0.00000010
  10        -1.03948101
