[Molden Format]
[N_Atoms]
                     2
[Atoms] (AU)
BE1         1      4           0.00000000      0.00000000      0.00000000
LI2         2      3           0.00000000      0.00000000      5.29123315
[Charge] (Mulliken)
  4.269554596221248E-003
 -4.269554596238567E-003
[GTO] (AU)
   1
   s  14
  2.262859900E+04  8.443999941E-05
  3.372318100E+03  4.601499968E-04
  7.603504000E+02  2.285389984E-03
  2.117404800E+02  9.648129932E-03
  6.722346800E+01  3.494469975E-02
  2.337217700E+01  1.061099893E-01
  8.721373000E+00  2.458240383E-01
  3.468091000E+00  3.862428773E-01
  1.452144000E+00  3.105526078E-01
  6.086150000E-01  6.415933955E-02
  2.576860000E-01 -2.265049984E-03
  1.041760000E-01 -5.217499963E-04
  4.242700000E-02 -8.757499938E-04
  1.484900000E-02  1.242199991E-04
   s  14
  2.262859900E+04 -1.586999994E-05
  3.372318100E+03 -8.656999968E-05
  7.603504000E+02 -4.302199984E-04
  2.117404800E+02 -1.825079993E-03
  6.722346800E+01 -6.682749976E-03
  2.337217700E+01 -2.095119992E-02
  8.721373000E+00 -5.200308981E-02
  3.468091000E+00 -9.849176964E-02
  1.452144000E+00 -1.355800695E-01
  6.086150000E-01 -6.429875976E-02
  2.576860000E-01  3.125414989E-01
  1.041760000E-01  6.270468577E-01
  4.242700000E-02  2.110231492E-01
  1.484900000E-02 -4.104669985E-03
   p   9
  3.371018400E+01  1.069960000E-03
  8.057649500E+00  6.828550001E-03
  2.836471400E+00  2.119065000E-02
  1.099965700E+00  5.843696001E-02
  4.433964000E-01  2.020920800E-01
  1.822264000E-01  4.582953101E-01
  7.572410000E-02  3.691239601E-01
  3.168540000E-02  6.611471001E-02
  1.108990000E-02  1.405160000E-03
 
   2
   s  14
  9.497934400E+03  9.668999974E-05
  1.416811200E+03  6.087099984E-04
  3.214599400E+02  3.101519992E-03
  9.112416300E+01  1.266904997E-02
  2.999989100E+01  4.248012989E-02
  1.101763100E+01  1.150183297E-01
  4.372801000E+00  2.398650094E-01
  1.831256000E+00  3.584300090E-01
  8.022610000E-01  3.048527792E-01
  3.626480000E-01  8.824261976E-02
  1.139950000E-01 -8.445899977E-04
  5.123700000E-02 -7.943959979E-03
  2.246800000E-02 -3.764419990E-03
  7.860000000E-03 -8.868999976E-05
   s  14
  9.497934400E+03 -1.244999993E-05
  1.416811200E+03 -7.838999954E-05
  3.214599400E+02 -4.007099976E-04
  9.112416300E+01 -1.645249990E-03
  2.999989100E+01 -5.634599967E-03
  1.101763100E+01 -1.590780991E-02
  4.372801000E+00 -3.612581979E-02
  1.831256000E+00 -6.459927962E-02
  8.022610000E-01 -1.008321794E-01
  3.626480000E-01 -9.757613942E-02
  1.139950000E-01  2.301215886E-01
  5.123700000E-02  6.102389764E-01
  2.246800000E-02  2.849406083E-01
  7.860000000E-03  4.026899976E-03
   p   9
  1.311950400E+01  1.524940000E-03
  3.077424200E+00  8.314830000E-03
  1.098800500E+00  1.933203000E-02
  4.357784000E-01  4.934293000E-02
  1.802432000E-01  1.623554000E-01
  7.613330000E-02  3.847505400E-01
  3.254650000E-02  4.336100400E-01
  1.401820000E-02  1.287005900E-01
  4.906400000E-03 -1.018520000E-03
 
[MO]
Sym=     1a  
Ene=    -4.7166
Spin= Alpha
Occup=    1.00000
   1         0.99997801
   2         0.00252020
   3        -0.00000000
   4        -0.00000000
   5        -0.00052088
   6         0.00002217
   7         0.00027334
   8        -0.00000000
   9        -0.00000000
  10        -0.00010173
Sym=     1a  
Ene=    -4.7124
Spin= Beta
Occup=    1.00000
   1         1.00001032
   2         0.00254563
   3        -0.00000000
   4         0.00000000
   5         0.00075813
   6        -0.00004820
   7        -0.00016224
   8         0.00000000
   9        -0.00000000
  10         0.00009652
Sym=     2a  
Ene=    -2.4747
Spin= Alpha
Occup=    1.00000
   1         0.00005951
   2         0.00083576
   3        -0.00000000
   4        -0.00000000
   5         0.00021381
   6         0.99988895
   7         0.01174808
   8        -0.00000000
   9        -0.00000000
  10         0.00072993
Sym=     2a  
Ene=    -2.4636
Spin= Beta
Occup=    1.00000
   1        -0.00001822
   2         0.00087573
   3         0.00000000
   4        -0.00000000
   5         0.00055795
   6         0.99984964
   7         0.01291011
   8        -0.00000000
   9         0.00000000
  10         0.00046800
Sym=     3a  
Ene=    -0.3330
Spin= Alpha
Occup=    1.00000
   1        -0.01464782
   2         0.87265386
   3         0.00000000
   4        -0.00000000
   5        -0.23472560
   6        -0.01563920
   7         0.18214659
   8        -0.00000000
   9        -0.00000000
  10        -0.06416664
Sym=     3a  
Ene=    -0.3185
Spin= Beta
Occup=    1.00000
   1        -0.01530437
   2         0.82616331
   3         0.00000000
   4         0.00000000
   5         0.29360469
   6        -0.04947461
   7         0.11546015
   8         0.00000000
   9         0.00000000
  10        -0.11120035
Sym=     4a  
Ene=    -0.1871
Spin= Alpha
Occup=    1.00000
   1        -0.03115343
   2        -0.31378970
   3         0.00000000
   4         0.00000000
   5         0.36621730
   6        -0.02458099
   7         0.87185397
   8        -0.00000000
   9        -0.00000000
  10         0.04123285
Sym=     4a  
Ene=     0.0458
Spin= Beta
Occup=    0.00000
   1        -0.00690240
   2        -0.30712173
   3         0.00000000
   4         0.00000000
   5         0.11911862
   6        -0.00950943
   7         0.88919436
   8         0.00000000
   9         0.00000000
  10         0.37541930
Sym=     5a  
Ene=     0.0325
Spin= Alpha
Occup=    0.00000
   1         0.04906111
   2         0.17780130
   3         0.00000000
   4         0.00000000
   5        -0.51876327
   6         0.02524759
   7         0.26892619
   8         0.00000000
   9         0.00000000
  10         0.80291317
Sym=     5a  
Ene=     0.0585
Spin= Beta
Occup=    0.00000
   1         0.00000000
   2         0.00000000
   3         0.37526914
   4         0.27335019
   5        -0.00000000
   6         0.00000000
   7        -0.00000000
   8         0.61753648
   9         0.44982040
  10        -0.00000000
Sym=     6a  
Ene=     0.0333
Spin= Alpha
Occup=    0.00000
   1         0.00000000
   2         0.00000000
   3        -0.26879921
   4        -0.20058796
   5        -0.00000000
   6         0.00000000
   7         0.00000000
   8        -0.68277556
   9        -0.50951250
  10         0.00000000
Sym=     6a  
Ene=     0.0585
Spin= Beta
Occup=    0.00000
   1         0.00000000
   2         0.00000000
   3        -0.27335019
   4         0.37526914
   5        -0.00000000
   6         0.00000000
   7        -0.00000000
   8        -0.44982040
   9         0.61753648
  10        -0.00000000
Sym=     7a  
Ene=     0.0333
Spin= Alpha
Occup=    0.00000
   1         0.00000000
   2         0.00000000
   3         0.20058796
   4        -0.26879921
   5        -0.00000000
   6         0.00000000
   7         0.00000000
   8         0.50951250
   9        -0.68277556
  10         0.00000000
Sym=     7a  
Ene=     0.1116
Spin= Beta
Occup=    0.00000
   1         0.05042430
   2         0.69271046
   3        -0.00000000
   4         0.00000000
   5        -0.61571693
   6         0.01857210
   7        -0.03285951
   8        -0.00000000
   9        -0.00000000
  10         0.66609869
Sym=     8a  
Ene=     0.1291
Spin= Alpha
Occup=    0.00000
   1         0.00000000
   2         0.00000000
   3        -0.91209688
   4        -0.37769650
   5         0.00000000
   6        -0.00000000
   7         0.00000000
   8         0.55533403
   9         0.22996211
  10         0.00000000
Sym=     8a  
Ene=     0.1522
Spin= Beta
Occup=    0.00000
   1         0.00000000
   2         0.00000000
   3        -0.85400588
   4        -0.37708170
   5         0.00000000
   6        -0.00000000
   7        -0.00000000
   8         0.64903557
   9         0.28657817
  10         0.00000000
Sym=     9a  
Ene=     0.1291
Spin= Alpha
Occup=    0.00000
   1        -0.00000000
   2        -0.00000000
   3         0.37769650
   4        -0.91209688
   5        -0.00000000
   6         0.00000000
   7         0.00000000
   8        -0.22996211
   9         0.55533403
  10         0.00000000
Sym=     9a  
Ene=     0.1522
Spin= Beta
Occup=    0.00000
   1        -0.00000000
   2        -0.00000000
   3         0.37708170
   4        -0.85400588
   5        -0.00000000
   6         0.00000000
   7         0.00000000
   8        -0.28657817
   9         0.64903557
  10        -0.00000000
Sym=    10a  
Ene=     0.2354
Spin= Alpha
Occup=    0.00000
   1         0.11308828
   2         1.05994855
   3         0.00000000
   4        -0.00000000
   5         0.96145838
   6        -0.08928941
   7        -0.86478457
   8        -0.00000000
   9        -0.00000000
  10         1.06809333
Sym=    10a  
Ene=     0.2215
Spin= Beta
Occup=    0.00000
   1         0.11615487
   2         0.87084752
   3         0.00000000
   4        -0.00000000
   5         0.95038303
   6        -0.08157427
   7        -0.89909641
   8        -0.00000000
   9         0.00000000
  10         1.09284862
