   This run of MOLCAS is using the pymolcas driver

                             OPE
                             OPE          NMOL  CASOP  ENMOLC A   SO
                 OPE        NMOLC        AS  OP EN  MO LC     AS  OP
                OPENM       OL CA        SO  PE NM  OL CA     SOP EN
                OP EN      MO   LC       AS  OP ENMOL  CASO   PENMOL
                OP  EN     MO   LC       AS  OP EN     MO     LC ASO
               OP   E  NMOL  C  AS       OP  EN MO     LC     AS  OP
               OP  E   NMO   LC AS        OPEN  MO     LCASOP EN   M
               O  PEN   MO  LCA  SO
            OPE   NMO   L   CAS    OP
        OPENMOL  CASOP     ENMOL   CASOPE
     OPENMOLCA   SOPENMOLCASOPEN   MOLCASOPE
    OPENMOLCAS   OP           EN   MOL    CAS
    OPENMOLCAS       OP  ENM        O     LCA
    OPENMOLCAS    OPEN  MOLCASO     P  E  NMO
    OPENMOLCAS     OP               E  N  MOL
    OPENMOLCA   SO           PENM   O  L  CAS    OPEN    MO    LCAS
    OPENMOLCA   SOP           ENM   O  L  CAS   OP  EN  MOLC  AS   O
    OPENMOLCA   SOPE           NM      O  LCA   S      OP  EN MO
    OPENMOLC                AS         O  PEN   M      OL  CA  SOPE
    OPENMO        LCASOPE  NMOL        C  ASO   P      ENMOLC     AS
    OPE     NMO      LCA  SO     P     E   NM   OL  CA SO  PE N   MO
          OPENMOLCA            SOPE   NMO        LCAS  O    P  ENMO
     OPENMOLCASOPENMOLCASOPENMOLCASOPENMOLCA
        OPENMOLCASOPENMOLCASOPENMOLCASOPE
            OPENMOLCASOPENMOLCASOPENM
               OPENMOLCASOPENMOLCA        version: ea724fe96-dirty
                   OPENMOLCASO
                       OPE                tag:

 OpenMolcas is free software; you can redistribute it and/or modify it
 under the terms of the GNU Lesser General Public License version 2.1.
 OpenMolcas is distributed in the hope that it will be useful, but it
 is provided "as is" and without any express or implied warranties.
 For more details see the full text of the license in the file
 LICENSE or in <http://www.gnu.org/licenses/>.

                 Copyright (C) The OpenMolcas Authors
           For the author list and the recommended citation,
                   consult the file CONTRIBUTORS.md

           *************************************************
           * pymolcas version py2.28                       *
           *   build c4a6d18ded8cb6cad61d2372a9abd97c      *
           *   (after the EMIL interpreter by V. Veryazov) *
           *************************************************

configuration info
------------------
C Compiler ID: Intel
C flags: -std=gnu99
Fortran Compiler ID: Intel
Fortran flags: -fpp -i8 -r8 -heap-arrays
Definitions: _MOLCAS_;_I8_;_LINUX_
Parallel: OFF (GA=OFF)


   ----------------------------------------------------------------------------------
  |
  |              Project: H10_2.73
  |       Submitted from: /home/grierjones/DDCASPT2/hydrogen_comps/H10_chain/H10_2.73
  |         Scratch area: /tmp/H10_2.73
  |      Save outputs to: /home/grierjones/DDCASPT2/hydrogen_comps/H10_chain/H10_2.73
  |               Molcas: /home/grierjones/Test/build
  |
  | Scratch area is empty
  |
  |       MOLCAS_DRIVER = /usr/local/pymolcas
  | MOLCAS_KEEP_WORKDIR = NO
  |  MOLCAS_NEW_WORKDIR = YES
  |       MOLCAS_NPROCS = 1
  |        MOLCAS_PRINT = NORMAL
  |       MOLCAS_SOURCE = /home/grierjones/Test/build
  |    MOLCAS_STRUCTURE = 0
  |
   ----------------------------------------------------------------------------------

++ ---------   Input file   ---------

&GATEWAY
coord=H10_2.73.xyz
Basis = ANO-RCC-VDZP
Group = nosymm
Expert
End of Input

&SEWARD
End of Input

&SCF

>>> COPY $WorkDir/H10_2.73.scf.h5 $CurrDir/

&RASSCF
Title= RASSCF
FileOrb
/home/grierjones/DDCASPT2/hydrogen_comps/H10_chain/H10_2.71/H10_2.71.RasOrb
NACTEL
10 0 0
Inactive
0
RAS2
10
Symmetry
1
Spin
1
orblisting
all
ITERation
300 200

>>> COPY $WorkDir/H10_2.73.rasscf.h5 $CurrDir/

>>> COPY $WorkDir/GMJ_Fock_MO.csv $CurrDir/H10_2.73.GMJ_Fock_MO.csv

>>> COPY $WorkDir/GMJ_PT2_Fock_MO.csv $CurrDir/H10_2.73.GMJ_PT2_Fock_MO.csv

&MOTRA
Frozen=0
LUMORB

>>> COPY $WorkDir/GMJ_one_int_indx.csv $CurrDir/H10_2.73.GMJ_one_int_indx.csv

>>> COPY $WorkDir/GMJ_one_int.csv $CurrDir/H10_2.73.GMJ_one_int.csv

>>> COPY $WorkDir/GMJ_two_int_indx.csv $CurrDir/H10_2.73.GMJ_two_int_indx.csv

>>> COPY $WorkDir/GMJ_two_int.csv $CurrDir/H10_2.73.GMJ_two_int.csv

&CASPT2
Frozen
0
MAXITER
50

>>> FOREACH i IN (B,E,F,G,H)

  >>> FOREACH j IN (P,M)

    >>> IF (-FILE GMJ_e2_${i}_${j}.csv)

      >>> COPY $WorkDir/GMJ_RHS_${i}_${j}.csv $CurrDir/GMJ_RHS_${i}_${j}.csv

      >>> COPY $WorkDir/GMJ_IVECW_${i}_${j}.csv $CurrDir/GMJ_IVECW_${i}_${j}.csv

      >>> COPY $WorkDir/GMJ_IVECX_${i}_${j}.csv $CurrDir/GMJ_IVECX_${i}_${j}.csv

      >>> COPY $WorkDir/GMJ_IVECC2_${i}_${j}.csv $CurrDir/GMJ_IVECC2_${i}_${j}.csv

      >>> COPY $WorkDir/GMJ_e2_${i}_${j}.csv $CurrDir/GMJ_e2_${i}_${j}.csv

    >>> END IF

  >>> END FOREACH

>>> END FOREACH

>>> FOREACH i IN (A,C,D)

  >>> IF (-FILE GMJ_e2_$i.csv)

    >>> COPY $WorkDir/GMJ_RHS_$i.csv $CurrDir/GMJ_RHS_$i.csv

    >>> COPY $WorkDir/GMJ_IVECW_$i.csv $CurrDir/GMJ_IVECW_$i.csv

    >>> COPY $WorkDir/GMJ_IVECX_$i.csv $CurrDir/GMJ_IVECX_$i.csv

    >>> COPY $WorkDir/GMJ_IVECC2_$i.csv $CurrDir/GMJ_IVECC2_$i.csv

    >>> COPY $WorkDir/GMJ_e2_$i.csv $CurrDir/GMJ_e2_$i.csv

  >>> END IF

>>> END FOREACH

-- ----------------------------------

--- Start Module: gateway at Mon Nov 18 19:02:05 2024 ---
 
()()()()()()()()()()()()()()()()()()()()()()()()()()()()()()()()()()()()()()()()()()()()()()()()()()

                                              &GATEWAY

                                   only a single process is used
                       available to each process: 2.0 GB of memory, 1 thread?
()()()()()()()()()()()()()()()()()()()()()()()()()()()()()()()()()()()()()()()()()()()()()()()()()()
 
 ###############################################################################
 ###############################################################################
 ###                                                                         ###
 ###                                                                         ###
 ###                                                                         ###
 ###    WARNING: EXPERT option is ON!                                        ###
 ###                                                                         ###
 ###                                                                         ###
 ###############################################################################
 ###############################################################################
 
++    Symmetry information:
      ---------------------
 
                    Character Table for C1 
 
                             E  
                    a        1  x, y, xy, Rz, z, xz, Ry, yz, Rx, I
--
 
 
++    Basis set information:
      ----------------------
 
 
      Basis set label: H.ANO-RCC...2S1P.
 
      Electronic valence basis set:
      ------------------
      Associated Effective Charge   1.000000 au
      Associated Actual Charge      1.000000 au
      Nuclear Model: Point charge
 
      Shell  nPrim  nBasis  Cartesian Spherical Contaminant
         s       8       2        X                  
         p       4       1        X                  
--
 
 
++    Molecular structure info:
      -------------------------
 
                    ************************************************ 
                    **** Cartesian Coordinates / Bohr, Angstrom **** 
                    ************************************************ 
 
     Center  Label                x              y              z                     x              y              z
        1      H1               0.000000       0.000000       0.000000              0.000000       0.000000       0.000000
        2      H2               0.000000       0.000000       5.165251              0.000000       0.000000       2.733333
        3      H3               0.000000       0.000000      10.330503              0.000000       0.000000       5.466667
        4      H4               0.000000       0.000000      15.495754              0.000000       0.000000       8.200000
        5      H5               0.000000       0.000000      20.661005              0.000000       0.000000      10.933333
        6      H6               0.000000       0.000000      25.826258              0.000000       0.000000      13.666667
        7      H7               0.000000       0.000000      30.991508              0.000000       0.000000      16.400000
        8      H8               0.000000       0.000000      36.156759              0.000000       0.000000      19.133333
        9      H9               0.000000       0.000000      41.322012              0.000000       0.000000      21.866667
       10      H10              0.000000       0.000000      46.487263              0.000000       0.000000      24.600000
 
                    *************************************** 
                    *    InterNuclear Distances / Bohr    * 
                    *************************************** 
 
               1 H1            2 H2            3 H3            4 H4            5 H5            6 H6    
    1 H1       0.000000
    2 H2       5.165251        0.000000
    3 H3      10.330503        5.165253        0.000000
    4 H4      15.495754       10.330503        5.165251        0.000000
    5 H5      20.661005       15.495754       10.330502        5.165251        0.000000
    6 H6      25.826258       20.661007       15.495754       10.330503        5.165253        0.000000
    7 H7      30.991508       25.826258       20.661005       15.495754       10.330503        5.165251
    8 H8      36.156759       30.991508       25.826256       20.661005       15.495754       10.330502
    9 H9      41.322012       36.156761       30.991508       25.826258       20.661007       15.495754
   10 H10     46.487263       41.322012       36.156759       30.991508       25.826258       20.661005
 
               7 H7            8 H8            9 H9           10 H10   
    7 H7       0.000000
    8 H8       5.165251        0.000000
    9 H9      10.330503        5.165253        0.000000
   10 H10     15.495754       10.330503        5.165251        0.000000
 
                    ******************************************* 
                    *    InterNuclear Distances / Angstrom    * 
                    ******************************************* 
 
               1 H1            2 H2            3 H3            4 H4            5 H5            6 H6    
    1 H1       0.000000
    2 H2       2.733333        0.000000
    3 H3       5.466667        2.733334        0.000000
    4 H4       8.200000        5.466667        2.733333        0.000000
    5 H5      10.933333        8.200000        5.466666        2.733333        0.000000
    6 H6      13.666667       10.933334        8.200000        5.466667        2.733334        0.000000
    7 H7      16.400000       13.666667       10.933333        8.200000        5.466667        2.733333
    8 H8      19.133333       16.400000       13.666666       10.933333        8.200000        5.466666
    9 H9      21.866667       19.133334       16.400000       13.666667       10.933334        8.200000
   10 H10     24.600000       21.866667       19.133333       16.400000       13.666667       10.933333
 
               7 H7            8 H8            9 H9           10 H10   
    7 H7       0.000000
    8 H8       2.733333        0.000000
    9 H9       5.466667        2.733334        0.000000
   10 H10      8.200000        5.466667        2.733333        0.000000
--
 
 
            Nuclear Potential Energy              3.73450989 au
 
 ###############################################################################
 ###############################################################################
 ###                                                                         ###
 ###                                                                         ###
 ###    There were warnings during the execution                             ###
 ###    Please, check the output with care!                                  ###
 ###                                                                         ###
 ###                                                                         ###
 ###############################################################################
 ###############################################################################
--- Stop Module: gateway at Mon Nov 18 19:02:05 2024 /rc=_RC_ALL_IS_WELL_ ---
*** files: xmldump
    saved to directory /home/grierjones/DDCASPT2/hydrogen_comps/H10_chain/H10_2.73

--- Start Module: seward at Mon Nov 18 19:02:05 2024 ---
 
()()()()()()()()()()()()()()()()()()()()()()()()()()()()()()()()()()()()()()()()()()()()()()()()()()

                                              &SEWARD

                                   only a single process is used
                       available to each process: 2.0 GB of memory, 1 thread?
()()()()()()()()()()()()()()()()()()()()()()()()()()()()()()()()()()()()()()()()()()()()()()()()()()
 
 ###############################################################################
 ###############################################################################
 ###                                                                         ###
 ###                                                                         ###
 ###                                                                         ###
 ###    WARNING: EXPERT option is ON!                                        ###
 ###                                                                         ###
 ###                                                                         ###
 ###############################################################################
 ###############################################################################
               SEWARD will generate:
                  Multipole Moment integrals up to order  2
                  Kinetic Energy integrals
                  Nuclear Attraction integrals (point charge)
                  One-Electron Hamiltonian integrals
                  Velocity integrals
                  Relativistic Douglas-Kroll-Hess integrals:
                    - Parametrization         : EXP
                    - DKH order of Hamiltonian: 2
                    - DKH order of Properties : 0
                         - multipole moment operators
                         - electric potential operators
                         - contact operators
                  Atomic mean-field integrals
                  Two-Electron Repulsion integrals
 
                   Integrals are discarded if absolute value <: 0.10E-13
                   Integral cutoff threshold is set to       <: 0.10E-15
 
            Nuclear Potential Energy              3.73450989 au
 
 
      Basis set specifications :
      Symmetry species         a  
      Basis functions           50
 
 
  Input file to MOLDEN was generated!
 
 ###############################################################################
 ###############################################################################
 ###                                                                         ###
 ###                                                                         ###
 ###    There were warnings during the execution                             ###
 ###    Please, check the output with care!                                  ###
 ###                                                                         ###
 ###                                                                         ###
 ###############################################################################
 ###############################################################################
--- Stop Module: seward at Mon Nov 18 19:02:06 2024 /rc=_RC_ALL_IS_WELL_ ---
*** files: H10_2.73.GssOrb H10_2.73.guessorb.h5 H10_2.73.guessorb.molden xmldump
    saved to directory /home/grierjones/DDCASPT2/hydrogen_comps/H10_chain/H10_2.73

*** symbolic link created: INPORB -> H10_2.73.GssOrb
--- Start Module: scf at Mon Nov 18 19:02:06 2024 ---
 
()()()()()()()()()()()()()()()()()()()()()()()()()()()()()()()()()()()()()()()()()()()()()()()()()()

                                                &SCF

                                   only a single process is used
                       available to each process: 2.0 GB of memory, 1 thread?
()()()()()()()()()()()()()()()()()()()()()()()()()()()()()()()()()()()()()()()()()()()()()()()()()()
 
++    Input section:
      --------------
 
      Header of the integral files:
      
       Integrals generated by seward 4.2.0  , Mon Nov 18 19:02:05 2024
 
 
      Cartesian coordinates in Angstrom:
      -----------------------------------------------------
      No.  Label        X            Y            Z        
      -----------------------------------------------------
       1   H1         0.00000000   0.00000000   0.00000000
       2   H2         0.00000000   0.00000000   2.73333300
       3   H3         0.00000000   0.00000000   5.46666700
       4   H4         0.00000000   0.00000000   8.20000000
       5   H5         0.00000000   0.00000000  10.93333300
       6   H6         0.00000000   0.00000000  13.66666700
       7   H7         0.00000000   0.00000000  16.40000000
       8   H8         0.00000000   0.00000000  19.13333300
       9   H9         0.00000000   0.00000000  21.86666700
      10   H10        0.00000000   0.00000000  24.60000000
      -----------------------------------------------------
      Nuclear repulsion energy =    3.73450989
--
 
++    Orbital specifications:
      -----------------------
 
      Symmetry species               1
                                     a
      Frozen orbitals                0
      Occupied orbitals              5
      Secondary orbitals            45
      Deleted orbitals               0
      Total number of orbitals      50
      Number of basis functions     50
--
 
      Molecular charge                           0.000
 
++    Optimization specifications:
      ----------------------------
 
      SCF Algorithm: Conventional
      Minimized density differences are used
      Number of density matrices in core                5
      Maximum number of NDDO SCF iterations           400
      Maximum number of HF SCF iterations             400
      Threshold for SCF energy change            0.10E-08
      Threshold for density matrix               0.10E-03
      Threshold for Fock matrix                  0.15E-03
      Threshold for linear dependence            0.10E-08
      Threshold at which DIIS is turned on       0.15E+00
      Threshold at which QNR/C2DIIS is turned on 0.75E-01
      Threshold for Norm(delta) (QNR/C2DIIS)     0.20E-04
      DIIS extrapolation of the SCF procedure
      All orbitals punched on: SCFORB
--
 
      Input vectors read from INPORB
      Orbital file label: *Guess orbitals
 
 
++ Convergence information
                                   SCF        iterations: Energy and convergence statistics
 
Iter     Tot. SCF        One-elec.       Two-elec.     Energy      Max Dij or  Max Fij      DNorm      TNorm      AccCon     Time
         Energy          Energy          Energy        Change      Delta Norm                                                in Sec.
   1    -3.914687654   -12.575009165     4.925811623   0.00E+00    0.41E+00*   0.13E+00*    0.51E+01   0.87E+01   None         0.
   2    -4.224139549   -12.531578953     4.572929515  -0.31E+00*   0.16E+00*   0.25E-01*    0.15E+01   0.84E+01   EDIIS        0.
   3    -4.240193412   -12.457013092     4.482309792  -0.16E-01*   0.11E+00*   0.94E-02*    0.39E+00   0.83E+01   EDIIS        0.
   4    -4.244251318   -12.462448282     4.483687075  -0.41E-02*   0.66E-01*   0.70E-02*    0.20E+00   0.83E+01   c2DIIS       0.
   5    -4.246079066   -12.447592392     4.467003438  -0.18E-02*   0.37E-01*   0.46E-02*    0.64E-01   0.83E+01   QNRc2DIIS    0.
   6    -4.246737850   -12.455565218     4.474317479  -0.66E-03*   0.43E-01*   0.32E-02*    0.35E-01   0.83E+01   QNRc2DIIS    0.
   7    -4.247185047   -12.452163704     4.470468769  -0.45E-03*   0.10E-01*   0.80E-03*    0.14E-01   0.83E+01   QNRc2DIIS    0.
   8    -4.247203202   -12.449236126     4.467523035  -0.18E-04*   0.25E-02*   0.41E-03*    0.63E-02   0.83E+01   QNRc2DIIS    0.
   9    -4.247207364   -12.449924497     4.468207245  -0.42E-05*   0.36E-03*   0.32E-04     0.24E-02   0.83E+01   QNRc2DIIS    0.
  10    -4.247207415   -12.449951012     4.468233708  -0.52E-07*   0.12E-03*   0.86E-05     0.67E-03   0.83E+01   QNRc2DIIS    0.
  11    -4.247207421   -12.449949363     4.468232054  -0.52E-08*   0.49E-04*   0.26E-05     0.13E-03   0.83E+01   QNRc2DIIS    0.
  12    -4.247207421   -12.449948998     4.468231689  -0.60E-09    0.19E-05    0.24E-06     0.22E-04   0.83E+01   QNRc2DIIS    0.
 
       Convergence after 12 Macro Iterations
--
 
 *****************************************************************************************************************************
 *                                                                                                                           *
 *                                             SCF/KS-DFT Program, Final results                                             *
 *                                                                                                                           *
 *                                                                                                                           *
 *                                                                                                                           *
 *                                                       Final Results                                                       *
 *                                                                                                                           *
 *****************************************************************************************************************************
 
::    Total SCF energy                                 -4.2472074212
      One-electron energy                             -12.4499489983
      Two-electron energy                               4.4682316887
      Nuclear repulsion energy                          3.7345098884
      Kinetic energy (interpolated)                     3.2842886812
      Virial theorem                                    1.2931894341
      Total spin, S(S+1)                                0.0000000000
      Total spin, S                                     0.0000000000
      Max non-diagonal density matrix element           0.0000018698
      Max non-diagonal Fock matrix element              0.0000000576
 
 
      All orbitals with orbital energies smaller than  E(LUMO)+0.5 are printed
 
++    Molecular orbitals:
      -------------------
 
      Title: SCF orbitals

      Molecular orbitals for symmetry species 1: a  
 
          Orbital            1         2         3         4         5         6         7         8         9        10    
          Energy           -0.3756   -0.3669   -0.3538   -0.3376   -0.3228   -0.1586   -0.1382   -0.1151   -0.0946   -0.0807
          Occ. No.          2.0000    2.0000    2.0000    2.0000    2.0000    0.0000    0.0000    0.0000    0.0000    0.0000
 
        1 H1     1s         0.1293   -0.2518    0.3421   -0.3604    0.2508   -0.2773    0.4244   -0.4365    0.3477   -0.1923
        2 H1     2s         0.0256   -0.0507    0.0707   -0.0772    0.0556   -0.0835    0.1326   -0.1409    0.1143   -0.0635
        3 H1     2px        0.0000   -0.0000    0.0000   -0.0000    0.0000    0.0000   -0.0000    0.0000   -0.0000    0.0000
        4 H1     2py       -0.0000    0.0000    0.0000   -0.0000    0.0000    0.0000   -0.0000    0.0000   -0.0000    0.0000
        5 H1     2pz        0.0041   -0.0073    0.0089   -0.0081    0.0049    0.0019   -0.0053    0.0087   -0.0097    0.0065
        6 H2     1s         0.1709   -0.3090    0.3722   -0.3334    0.1970    0.1493   -0.3309    0.4663   -0.4639    0.2910
        7 H2     2s         0.0285   -0.0593    0.0848   -0.0901    0.0607    0.0399   -0.1027    0.1561   -0.1592    0.0999
        8 H2     2px        0.0000   -0.0000    0.0000    0.0000   -0.0000    0.0000   -0.0000   -0.0000   -0.0000    0.0000
        9 H2     2py       -0.0000    0.0000    0.0000    0.0000   -0.0000    0.0000   -0.0000   -0.0000    0.0000   -0.0000
       10 H2     2pz       -0.0008    0.0028   -0.0062    0.0092   -0.0077    0.0103   -0.0129    0.0079   -0.0008   -0.0022
       11 H3     1s         0.2872   -0.3400    0.0918    0.2665   -0.3530    0.3890   -0.2922   -0.1401    0.4800   -0.4161
       12 H3     2s         0.0568   -0.0647    0.0081    0.0738   -0.0919    0.1199   -0.0900   -0.0513    0.1637   -0.1402
       13 H3     2px        0.0000    0.0000    0.0000   -0.0000   -0.0000    0.0000   -0.0000   -0.0000    0.0000   -0.0000
       14 H3     2py        0.0000   -0.0000    0.0000   -0.0000    0.0000    0.0000   -0.0000    0.0000   -0.0000    0.0000
       15 H3     2pz        0.0050   -0.0037   -0.0031    0.0088   -0.0074   -0.0081    0.0131   -0.0090   -0.0018    0.0067
       16 H4     1s         0.3131   -0.3047   -0.0202    0.3350   -0.3181   -0.3089    0.4215   -0.1074   -0.3877    0.4707
       17 H4     2s         0.0564   -0.0667    0.0074    0.0773   -0.0890   -0.0909    0.1385   -0.0405   -0.1303    0.1599
       18 H4     2px       -0.0000   -0.0000    0.0000   -0.0000   -0.0000   -0.0000   -0.0000    0.0000    0.0000    0.0000
       19 H4     2py        0.0000   -0.0000    0.0000   -0.0000   -0.0000   -0.0000   -0.0000   -0.0000   -0.0000   -0.0000
       20 H4     2pz       -0.0030    0.0062   -0.0045   -0.0044    0.0094   -0.0127    0.0047    0.0096   -0.0098    0.0015
       21 H5     1s         0.3603   -0.0430   -0.3584    0.0596    0.3734   -0.3996   -0.1220    0.4575    0.0982   -0.5145
       22 H5     2s         0.0682    0.0008   -0.0812    0.0034    0.1006   -0.1208   -0.0453    0.1527    0.0357   -0.1740
       23 H5     2px        0.0000    0.0000    0.0000   -0.0000   -0.0000    0.0000    0.0000    0.0000   -0.0000   -0.0000
       24 H5     2py        0.0000   -0.0000   -0.0000   -0.0000   -0.0000   -0.0000   -0.0000   -0.0000   -0.0000    0.0000
       25 H5     2pz        0.0048    0.0030   -0.0066   -0.0038    0.0094    0.0118   -0.0079   -0.0087    0.0085    0.0047
       26 H6     1s         0.3603    0.0430   -0.3584   -0.0596    0.3734    0.3996   -0.1220   -0.4575    0.0982    0.5145
       27 H6     2s         0.0682   -0.0008   -0.0812   -0.0034    0.1006    0.1208   -0.0453   -0.1527    0.0357    0.1740
       28 H6     2px        0.0000    0.0000   -0.0000   -0.0000   -0.0000    0.0000    0.0000   -0.0000   -0.0000   -0.0000
       29 H6     2py        0.0000   -0.0000    0.0000   -0.0000    0.0000   -0.0000   -0.0000   -0.0000    0.0000    0.0000
       30 H6     2pz       -0.0048    0.0030    0.0066   -0.0038   -0.0094    0.0118    0.0079   -0.0087   -0.0085    0.0047
       31 H7     1s         0.3131    0.3047   -0.0202   -0.3350   -0.3181    0.3089    0.4215    0.1074   -0.3877   -0.4707
       32 H7     2s         0.0564    0.0667    0.0074   -0.0773   -0.0890    0.0909    0.1385    0.0405   -0.1303   -0.1599
       33 H7     2px        0.0000    0.0000    0.0000    0.0000    0.0000   -0.0000   -0.0000    0.0000    0.0000   -0.0000
       34 H7     2py        0.0000    0.0000    0.0000   -0.0000   -0.0000    0.0000    0.0000   -0.0000   -0.0000    0.0000
       35 H7     2pz        0.0030    0.0062    0.0045   -0.0044   -0.0094   -0.0127   -0.0047    0.0096    0.0098    0.0015
       36 H8     1s         0.2872    0.3400    0.0918   -0.2665   -0.3530   -0.3890   -0.2922    0.1401    0.4800    0.4161
       37 H8     2s         0.0568    0.0647    0.0081   -0.0738   -0.0919   -0.1199   -0.0900    0.0513    0.1637    0.1402
       38 H8     2px        0.0000   -0.0000    0.0000   -0.0000   -0.0000    0.0000    0.0000    0.0000    0.0000   -0.0000
       39 H8     2py       -0.0000    0.0000    0.0000   -0.0000   -0.0000   -0.0000   -0.0000    0.0000    0.0000    0.0000
       40 H8     2pz       -0.0050   -0.0037    0.0031    0.0088    0.0074   -0.0081   -0.0131   -0.0090    0.0018    0.0067
       41 H9     1s         0.1709    0.3090    0.3722    0.3334    0.1970   -0.1493   -0.3309   -0.4663   -0.4639   -0.2910
       42 H9     2s         0.0285    0.0593    0.0848    0.0901    0.0607   -0.0399   -0.1027   -0.1561   -0.1592   -0.0999
       43 H9     2px       -0.0000    0.0000   -0.0000   -0.0000    0.0000    0.0000    0.0000    0.0000    0.0000    0.0000
       44 H9     2py       -0.0000   -0.0000   -0.0000    0.0000   -0.0000   -0.0000   -0.0000   -0.0000   -0.0000   -0.0000
       45 H9     2pz        0.0008    0.0028    0.0062    0.0092    0.0077    0.0103    0.0129    0.0079    0.0008   -0.0022
       46 H10    1s         0.1293    0.2518    0.3421    0.3604    0.2508    0.2773    0.4244    0.4365    0.3477    0.1923
       47 H10    2s         0.0256    0.0507    0.0707    0.0772    0.0556    0.0835    0.1326    0.1409    0.1143    0.0635
       48 H10    2px        0.0000    0.0000    0.0000    0.0000   -0.0000    0.0000   -0.0000   -0.0000    0.0000    0.0000
       49 H10    2py        0.0000    0.0000    0.0000    0.0000    0.0000   -0.0000   -0.0000   -0.0000    0.0000   -0.0000
       50 H10    2pz       -0.0041   -0.0073   -0.0089   -0.0081   -0.0049    0.0019    0.0053    0.0087    0.0097    0.0065
 
          Orbital           11        12        13    
          Energy            0.3159    0.3241    0.3384
          Occ. No.          0.0000    0.0000    0.0000
 
        1 H1     1s        -0.0835    0.1406   -0.1546
        2 H1     2s         0.1548   -0.2866    0.3763
        3 H1     2px       -0.0000    0.0000   -0.0000
        4 H1     2py       -0.0000   -0.0000   -0.0000
        5 H1     2pz       -0.0034    0.0052   -0.0052
        6 H2     1s        -0.1405    0.2060   -0.1713
        7 H2     2s         0.1771   -0.2780    0.2589
        8 H2     2px        0.0000   -0.0000    0.0000
        9 H2     2py       -0.0000   -0.0000   -0.0000
       10 H2     2pz        0.0021   -0.0021   -0.0022
       11 H3     1s        -0.1636    0.1838   -0.0551
       12 H3     2s         0.2254   -0.2733    0.0944
       13 H3     2px       -0.0000   -0.0000    0.0000
       14 H3     2py       -0.0000    0.0000    0.0000
       15 H3     2pz       -0.0018    0.0025   -0.0047
       16 H4     1s        -0.1903    0.1297    0.0859
       17 H4     2s         0.2573   -0.1906   -0.1422
       18 H4     2px       -0.0000    0.0000   -0.0000
       19 H4     2py       -0.0000    0.0000    0.0000
       20 H4     2pz        0.0028   -0.0001   -0.0057
       21 H5     1s        -0.2010    0.0503    0.1728
       22 H5     2s         0.2745   -0.0727   -0.2936
       23 H5     2px        0.0000   -0.0000   -0.0000
       24 H5     2py       -0.0000   -0.0000    0.0000
       25 H5     2pz       -0.0027    0.0024   -0.0000
       26 H6     1s        -0.2010   -0.0503    0.1728
       27 H6     2s         0.2745    0.0727   -0.2936
       28 H6     2px       -0.0000    0.0000    0.0000
       29 H6     2py       -0.0000    0.0000    0.0000
       30 H6     2pz        0.0027    0.0024    0.0000
       31 H7     1s        -0.1903   -0.1297    0.0859
       32 H7     2s         0.2573    0.1906   -0.1422
       33 H7     2px        0.0000   -0.0000    0.0000
       34 H7     2py        0.0000   -0.0000    0.0000
       35 H7     2pz       -0.0028   -0.0001    0.0057
       36 H8     1s        -0.1636   -0.1838   -0.0551
       37 H8     2s         0.2254    0.2733    0.0944
       38 H8     2px       -0.0000   -0.0000    0.0000
       39 H8     2py       -0.0000   -0.0000   -0.0000
       40 H8     2pz        0.0018    0.0025    0.0047
       41 H9     1s        -0.1405   -0.2060   -0.1713
       42 H9     2s         0.1771    0.2780    0.2589
       43 H9     2px        0.0000   -0.0000   -0.0000
       44 H9     2py       -0.0000    0.0000   -0.0000
       45 H9     2pz       -0.0021   -0.0021    0.0022
       46 H10    1s        -0.0835   -0.1406   -0.1546
       47 H10    2s         0.1548    0.2866    0.3763
       48 H10    2px        0.0000    0.0000    0.0000
       49 H10    2py       -0.0000   -0.0000   -0.0000
       50 H10    2pz        0.0034    0.0052    0.0052
--
 
 
++    Molecular charges:
      ------------------
 
      Mulliken charges per centre and basis function type
      ---------------------------------------------------
 
                H1      H2      H3      H4      H5      H6      H7      H8      H9      H10   
      1s       0.8816  0.9240  0.9037  0.9097  0.9065  0.9065  0.9097  0.9037  0.9240  0.8816
      2s       0.0894  0.0968  0.0896  0.0913  0.0907  0.0907  0.0913  0.0896  0.0968  0.0894
      2px      0.0000  0.0000  0.0000  0.0000  0.0000  0.0000  0.0000  0.0000  0.0000  0.0000
      2pz      0.0030  0.0034  0.0034  0.0034  0.0034  0.0034  0.0034  0.0034  0.0034  0.0030
      2py      0.0000  0.0000  0.0000  0.0000  0.0000  0.0000  0.0000  0.0000  0.0000  0.0000
      Total    0.9740  1.0242  0.9967  1.0044  1.0007  1.0007  1.0044  0.9967  1.0242  0.9740
 
      N-E      0.0260 -0.0242  0.0033 -0.0044 -0.0007 -0.0007 -0.0044  0.0033 -0.0242  0.0260
 
      Total electronic charge=   10.000000
 
      Total            charge=   -0.000000
--
 
 
  Input file to MOLDEN was generated!
 
 
++    Static properties:
      ------------------
 
 
      LoProp Charges per center
 

                   H1       H2       H3       H4       H5       H6       H7       H8       H9       H10   
      Nuclear      1.0000   1.0000   1.0000   1.0000   1.0000   1.0000   1.0000   1.0000   1.0000   1.0000
      Electronic  -0.9828  -1.0146  -0.9976  -1.0042  -1.0007  -1.0007  -1.0042  -0.9976  -1.0146  -0.9828
 
      Total        0.0172  -0.0146   0.0024  -0.0042  -0.0007  -0.0007  -0.0042   0.0024  -0.0146   0.0172
--
 
 
++    Natural Bond Order analysis
      ---------------------------
      Based on LoProp computed density
      -------------------------------------------------------------------------------------
      Atom A       Atom B       Bond Order
      -------------------------------------------------------------------------------------
      NBO located      0.974 non-bonded electrons on atom H1        
      NBO located      1.003 non-bonded electrons on atom H3        
      NBO located      1.010 non-bonded electrons on atom H4        
      NBO located      1.007 non-bonded electrons on atom H5        
      NBO located      1.007 non-bonded electrons on atom H6        
      NBO located      1.010 non-bonded electrons on atom H7        
      NBO located      1.003 non-bonded electrons on atom H8        
      NBO located      0.974 non-bonded electrons on atom H10       
      The remaining    2.011 electrons are to be considered as diffuse
--
 
 
++    Molecular properties:
      ---------------------
 
      Charge (e):
                      =   -0.0000
      Dipole Moment (Debye):
      Origin of the operator (Ang)=    0.0000    0.0000    0.0000
                   X= -1.6033E-13               Y= -4.0260E-14               Z= -7.0796E-12           Total=  7.0815E-12
      Quadrupole Moment (Debye*Ang):
      Origin of the operator (Ang)=    0.0000    0.0000   12.3000
                  XX= -2.4396E+01              XY= -3.9024E-28              XZ=  1.8170E-12              YY= -2.4396E+01
                  YZ=  3.2160E-13              ZZ=  2.2273E+00
      In traceless form (Debye*Ang)
                  XX= -1.3311E+01              XY= -5.8536E-28              XZ=  2.7256E-12              YY= -1.3311E+01
                  YZ=  4.8241E-13              ZZ=  2.6623E+01
--
 
 
  Input file to MOLDEN was generated!
 
 ###############################################################################
 ###############################################################################
 ###                                                                         ###
 ###                                                                         ###
 ###    RunFile label nBas                                                   ###
 ###    was used       78 times                                              ###
 ###                                                                         ###
 ###                                                                         ###
 ###############################################################################
 ###############################################################################
--- Stop Module: scf at Mon Nov 18 19:02:06 2024 /rc=_RC_ALL_IS_WELL_ ---
*** files: H10_2.73.LprOrb H10_2.73.LoProp.molden H10_2.73.scf.molden H10_2.73.ScfOrb H10_2.73.scf.h5 xmldump
    saved to directory /home/grierjones/DDCASPT2/hydrogen_comps/H10_chain/H10_2.73

>>> COPY /tmp/H10_2.73/H10_2.73.scf.h5 /home/grierjones/DDCASPT2/hydrogen_comps/H10_chain/H10_2.73/

*** symbolic link created: INPORB -> H10_2.73.ScfOrb
--- Start Module: rasscf at Mon Nov 18 19:02:06 2024 ---
 
()()()()()()()()()()()()()()()()()()()()()()()()()()()()()()()()()()()()()()()()()()()()()()()()()()

                                              &RASSCF

                                   only a single process is used
                       available to each process: 2.0 GB of memory, 1 thread?
()()()()()()()()()()()()()()()()()()()()()()()()()()()()()()()()()()()()()()()()()()()()()()()()()()
 
 
 *************** WARNING ****************
 ###############################################################################
 ###############################################################################
 ###                                                                         ###
 ###                                                                         ###
 ###    Too many macro-iterations.                                           ###
 ###                                                                         ###
 ###                                                                         ###
 ###############################################################################
 ###############################################################################
 Too many macro-iterations requested.
 Reset to maximum, new MAXIT=     200
 ****************************************
 
 *************** WARNING ****************
 ###############################################################################
 ###############################################################################
 ###                                                                         ###
 ###                                                                         ###
 ###    Too many SX-iterations.                                              ###
 ###                                                                         ###
 ###                                                                         ###
 ###############################################################################
 ###############################################################################
 Too many SX-iterations requested.
 Reset to maximum, new ITMAX=     100
 ****************************************
 
      Header of the ONEINT file:
      --------------------------
      
      Integrals generated by seward 4.2.0  , Mon Nov 18 19:02:05 2024
 
 
      OrdInt status: non-squared
 
 
      Cartesian coordinates in Angstrom:
      -----------------------------------------------------
      No.  Label        X            Y            Z        
      -----------------------------------------------------
       1   H1         0.00000000   0.00000000   0.00000000
       2   H2         0.00000000   0.00000000   2.73333300
       3   H3         0.00000000   0.00000000   5.46666700
       4   H4         0.00000000   0.00000000   8.20000000
       5   H5         0.00000000   0.00000000  10.93333300
       6   H6         0.00000000   0.00000000  13.66666700
       7   H7         0.00000000   0.00000000  16.40000000
       8   H8         0.00000000   0.00000000  19.13333300
       9   H9         0.00000000   0.00000000  21.86666700
      10   H10        0.00000000   0.00000000  24.60000000
      -----------------------------------------------------
      Nuclear repulsion energy =    3.73450989
 
++    Wave function specifications:
      -----------------------------
 
      Number of closed shell electrons           0
      Number of electrons in active shells      10
      Max number of holes in RAS1 space          0
      Max nr of electrons in RAS3 space          0
      Number of inactive orbitals                0
      Number of active orbitals                 10
      Number of secondary orbitals              40
      Spin quantum number                      0.0
      State symmetry                             1
--
 
++    Orbital specifications:
      -----------------------
 
      Symmetry species                           1
                                                 a
      Frozen orbitals                            0
      Inactive orbitals                          0
      Active orbitals                           10
      RAS1 orbitals                              0
      RAS2 orbitals                             10
      RAS3 orbitals                              0
      Secondary orbitals                        40
      Deleted orbitals                           0
      Number of basis functions                 50
--
 
++    CI expansion specifications:
      ----------------------------
 
      Number of CSFs                         19404
      Number of determinants                 31878
      Number of root(s) required                 1
      Root chosen for geometry opt.              1
      CI root used                               1
         
      highest root included in the CI            1
      max. size of the explicit Hamiltonian    200
--
 
++    Optimization specifications:
      ----------------------------
 
      RASSCF algorithm: Conventional
      Maximum number of macro iterations       200
      Maximum number of SX iterations          100
      Threshold for RASSCF energy            0.100E-07
      Threshold for max MO rotation          0.100E+00
      Threshold for max BLB element          0.100E-03
      Level shift parameter                  0.500E+00
      Make Quasi-Newton update
--
 
      The MO-coefficients are taken from the file:
      /home/grierjones/DDCASPT2/hydrogen_comps/H10_chain/H10_2.71/H10_2.71.RasOrb                                                     
      Title: RASSCF average (pseudo-natural) orbitals                                      
 
      Total molecular charge    0.00
 
      ************************************************************************************************************************
      *                                                                                                                      *
      *                                            Wave function control section                                             *
      *                                                                                                                      *
      ************************************************************************************************************************
 
 
                                         RASSCF iterations: Energy and convergence statistics
                                         ----------------------------------------------------
 
      Iter CI   SX   CI       RASSCF       Energy    max ROT     max BLB   max BLB  Level Ln srch  Step   QN   Walltime
          iter iter root      energy       change     param      element    value   shift minimum  type update hh:mm:ss
 Nr of preliminary CI iterations:   9
        1   1    4    1    -4.99258478    0.00E+00   0.20E-02    9  16 1 -0.12E-02*  0.01   0.00    SX    NO    0:00:00
        2   1    3    1    -4.99259101   -0.62E-05*  0.46E-03    9  16 1  0.28E-03*  0.01   0.00    SX    NO    0:00:00
        3   1    3    1    -4.99259154   -0.52E-06* -0.19E-03    9  16 1 -0.11E-03*  0.01   0.00    SX    NO    0:00:00
        No convergence in the CI section: MAXJT will be increased to 
                    60
        4  48    4    1    -4.99285381   -0.26E-03* -0.92E-03    9  16 1  0.56E-03*  0.01   0.00    SX    NO    0:00:01
        5  10    3    1    -4.99287195   -0.18E-04*  0.14E-03    1  11 1 -0.94E-04   0.01   1.00    QN   YES    0:00:00
        6  29    4    1    -4.99288120   -0.93E-05*  0.55E-02    9  16 1  0.19E-03*  0.01   1.00    QN   YES    0:00:01
        No convergence in the CI section: MAXJT will be increased to 
                    96
        7  84    4    1    -4.99278605    0.95E-04* -0.37E-02    1  11 1  0.46E-02*  0.00   0.02    LS   YES    0:00:03
        8   4    4    1    -4.99287371   -0.88E-04* -0.15E-02    1  11 1  0.15E-02*  0.01   1.41    LS   YES    0:00:00
        9   4    4    1    -4.99288191   -0.82E-05*  0.55E-04    5  15 1 -0.45E-03*  0.01   1.01    QN   YES    0:00:00
       10   1    4    1    -4.99288207   -0.16E-06* -0.43E-03    5  15 1 -0.40E-03*  0.01   2.50    QN   YES    0:00:00
       11  54    3    1    -4.99288320   -0.11E-05* -0.61E-04    5  17 1  0.64E-04   0.01   1.06    QN   YES    0:00:02
       12   4    3    1    -4.99288325   -0.50E-07*  0.21E-04    5  11 1 -0.15E-04   0.01   1.21    QN   YES    0:00:00
       13   1    3    1    -4.99288325   -0.34E-08  -0.41E-05    5  11 1  0.27E-05   0.01   0.93    QN   YES    0:00:00
      Convergence after 13 iterations
 
  Dmat in MO in SXCTL bf call to SXHAM                                                                                    
  mat. size =    10x   10
 
        1.2752377413069786
        0.0000000308022356      1.2513180948814369
        0.0000070030657803     -0.0000000405725529      1.2123172667818800
        0.0000000488138401     -0.0000397047424773     -0.0000000517576942      1.1609096964881520
       -0.0000048659804442      0.0000000504771101      0.0001154426676938      0.0000000763192525      1.1026970258171809
       -0.0002161170090278      0.0000000003747760      0.0004025863698894     -0.0000000191331291     -0.0000334371070387
        0.7470688310488643
        0.0000000429970132      0.0003310414648905      0.0000000000833427      0.0005186589411089     -0.0000000663131373
       -0.0000000398846571      0.7877361706715696
       -0.0000599428754243      0.0000000190571289      0.0004426630613667     -0.0000000000086357     -0.0005436003782508
        0.0000746565974065     -0.0000000510190204      0.8407307869028084
       -0.0000000878020157     -0.0000724130997200      0.0000000675565055     -0.0005028196588050     -0.0000000000060758
        0.0000000501823359     -0.0001556575690965      0.0000000746672381      0.8999485864073790
       -0.0000000003139559      0.0002523824880034      0.0000000431204929      0.0000244991286171     -0.0000000860599929
       -0.0000000289424526      0.0000076547716048     -0.0000000463787313     -0.0000131346490022      0.7220357996937854
       14   1    3    1    -4.99288325   -0.79E-10  -0.41E-05    5  11 1 -0.67E-06   0.01   0.93    QN   YES    0:00:00
 
      ************************************************************************************************************************
                                                      Wave function printout:
                       occupation of active orbitals, and spin coupling of open shells (u,d: Spin up or down)
      ************************************************************************************************************************
 
      Note: transformation to natural orbitals
      has been made, which may change the order of the CSFs.
 
      printout of CI-coefficients larger than  0.05 for root  1
      energy=      -4.992883
      conf/sym  1111111111     Coeff  Weight
             1  2222200000  -0.23849 0.05688
            36  2222000020   0.12619 0.01592
            50  222ud00ud0   0.13853 0.01919
            64  22u2d0u0d0   0.11237 0.01263
            78  2u22du00d0   0.09946 0.00989
            90  u222du0d00  -0.05765 0.00332
           100  u222d000ud  -0.11847 0.01404
           107  2220200200   0.08794 0.00773
           121  22ud20ud00   0.10915 0.01191
           135  2u2d2u0d00   0.10727 0.01151
           145  2u2d2000ud   0.05775 0.00334
           159  u22d200u0d  -0.09100 0.00828
           164  2202202000   0.07769 0.00604
           178  2ud22ud000   0.09584 0.00919
           203  u2d220u00d  -0.08925 0.00797
           207  2022220000   0.06773 0.00459
           232  ud222u000d  -0.09240 0.00854
           251  0222200002   0.07227 0.00522
          1971  2220000220  -0.08076 0.00652
          2020  22ud00ud20  -0.08468 0.00717
          2069  2u2d0u0d20  -0.07864 0.00618
          2141  u22d000u2d  -0.07070 0.00500
          2168  2202002020  -0.06024 0.00363
          2217  2ud20ud020  -0.06902 0.00476
          2290  u2d200u02d  -0.06087 0.00370
          2316  2022020020  -0.05104 0.00260
          2389  ud220u002d  -0.06053 0.00366
          2451  0222000022  -0.05417 0.00293
          2465  22u0d0u2d0  -0.07210 0.00520
          2514  2u20du02d0  -0.05842 0.00341
          2585  u220d002ud  -0.06260 0.00392
          2612  220ud02ud0  -0.06360 0.00405
          2661  2udududud0  -0.08018 0.00643
          2738  u2dud0uudd  -0.06072 0.00369
          2760  202ud20ud0  -0.05383 0.00290
          2837  ud2udu0udd  -0.05399 0.00291
          2900  022ud00ud2  -0.05555 0.00309
          2913  2uudduudd0  -0.07345 0.00539
          2984  u2udd0udud  -0.06102 0.00372
          3033  uu2ddu0dud  -0.07649 0.00585
          3132  u202d020ud  -0.06022 0.00363
          3236  udu2duu0dd  -0.05373 0.00289
          3331  uud2dud0ud  -0.05516 0.00304
          3380  u022d200ud  -0.05102 0.00260
          3457  2200202200  -0.05148 0.00265
          3506  2ud02ud200  -0.05516 0.00304
          3605  2020220200  -0.05001 0.00250
          3754  2u0d2u2d00  -0.06376 0.00407
          3927  udud2uud0d  -0.05632 0.00317
          3996  02ud20ud02  -0.05067 0.00257
          4025  uudd2udu0d  -0.05689 0.00324
          4145  0u2d2u0d02  -0.05114 0.00262
         12211  2200002220   0.05637 0.00318
         12260  2ud00ud220   0.06029 0.00363
         12331  u2d000u22d  -0.05635 0.00318
         12508  2u0d0u2d20   0.05649 0.00319
         12607  20ud02ud20   0.05102 0.00260
         12679  udud0uud2d  -0.05340 0.00285
         12777  uudd0udu2d  -0.05346 0.00286
         12899  0u2d0u0d22   0.05201 0.00270
         13841  0udududud2   0.05346 0.00286
         13917  uu0ddu2dud  -0.05912 0.00350
         18947  ud000u222d  -0.05795 0.00336
         18976  u0d002u22d  -0.05131 0.00263
         19001  0ud00ud222  -0.05157 0.00266
         19044  0u0d0u2d22  -0.05226 0.00273
         19079  u000d222ud  -0.05467 0.00299
         19129  000ud22ud2  -0.05075 0.00258
         19404  0000022222   0.07019 0.00493
 
      Natural orbitals and occupation numbers for root  1
      sym 1:   1.275238   1.251318   1.212318   1.160911   1.102698   0.747068   0.787735   0.840729   0.899948   0.722036

 
      ************************************************************************************************************************
      *                                                                                                                      *
      *                                                    Final results                                                     *
      *                                                                                                                      *
      ************************************************************************************************************************
 
 
++    Wave function specifications:
      -----------------------------
 
      Number of closed shell electrons           0
      Number of electrons in active shells      10
      Max number of holes in RAS1 space          0
      Max nr of electrons in RAS3 space          0
      Number of inactive orbitals                0
      Number of active orbitals                 10
      Number of secondary orbitals              40
      Spin quantum number                      0.0
      State symmetry                             1
--
 
++    Orbital specifications:
      -----------------------
 
      Symmetry species                           1
                                                 a
      Frozen orbitals                            0
      Inactive orbitals                          0
      Active orbitals                           10
      RAS1 orbitals                              0
      RAS2 orbitals                             10
      RAS3 orbitals                              0
      Secondary orbitals                        40
      Deleted orbitals                           0
      Number of basis functions                 50
--
 
++    CI expansion specifications:
      ----------------------------
 
      Number of CSFs                         19404
      Number of determinants                 31878
      Number of root(s) required                 1
      CI root used                               1
      highest root included in the CI            1
      Root passed to geometry opt.               1
--
 
++    Final optimization conditions:
      ------------------------------
 
      Average CI energy                              -4.99288325
      RASSCF energy for state  1                     -4.99288325
      Super-CI energy                                -0.00000000
      RASSCF energy change                            0.00000000
      Max change in MO coefficients              -0.311E-05
      Max non-diagonal density matrix element    -0.410E-05
      Maximum BLB matrix element                 -0.667E-06
      (orbital pair   5,  11 in symmetry   1)
      Norm of electronic gradient            0.154E-05
--
 
 
      Final state energy(ies):
      ------------------------
 
::    RASSCF root number  1 Total energy:     -4.99288325
 
++    Molecular orbitals:
      -------------------
 
      Pseudonatural active orbitals and approximate occupation numbers
 
 
 
 
      Molecular orbitals for symmetry species 1: a  
 
 
      Orbital                1         2         3         4         5         6         7         8         9        10
      Energy            0.0000    0.0000    0.0000    0.0000    0.0000    0.0000    0.0000    0.0000    0.0000    0.0000
      Occ. No.          1.2752    1.2513    1.2123    1.1609    1.1027    0.7471    0.7877    0.8407    0.8999    0.7220
 
    1 H1     1s         0.1563    0.2860    0.3644   -0.3670    0.2680    0.3369   -0.4173   -0.4064   -0.2859    0.1879
    2 H1     2s         0.0117    0.0217    0.0282   -0.0293    0.0222    0.0426   -0.0492   -0.0442   -0.0288    0.0249
    3 H1     2px       -0.0000   -0.0000    0.0000   -0.0000    0.0000    0.0000   -0.0000   -0.0000   -0.0000   -0.0000
    4 H1     2py       -0.0000    0.0000    0.0000   -0.0000    0.0000   -0.0000   -0.0000    0.0000   -0.0000   -0.0000
    5 H1     2pz        0.0004    0.0006    0.0006   -0.0004    0.0002    0.0018   -0.0017   -0.0011   -0.0004    0.0012
    6 H2     1s         0.2166    0.3617    0.3908   -0.3028    0.1468   -0.4500    0.4519    0.3147    0.1293   -0.2817
    7 H2     2s         0.0139    0.0264    0.0345   -0.0336    0.0216   -0.0691    0.0604    0.0329    0.0072   -0.0466
    8 H2     2px        0.0000   -0.0000    0.0000    0.0000    0.0000   -0.0000   -0.0000    0.0000    0.0000   -0.0000
    9 H2     2py       -0.0000    0.0000   -0.0000    0.0000    0.0000   -0.0000   -0.0000   -0.0000    0.0000   -0.0000
   10 H2     2pz        0.0004    0.0004   -0.0002    0.0007   -0.0006    0.0002   -0.0007   -0.0007   -0.0002   -0.0001
   11 H3     1s         0.3005    0.3475    0.0895    0.2667   -0.3918    0.4402   -0.1280    0.2804    0.4120    0.3824
   12 H3     2s         0.0215    0.0234    0.0012    0.0293   -0.0399    0.0705   -0.0232    0.0319    0.0471    0.0625
   13 H3     2px       -0.0000    0.0000    0.0000    0.0000   -0.0000    0.0000   -0.0000   -0.0000   -0.0000   -0.0000
   14 H3     2py       -0.0000   -0.0000    0.0000    0.0000    0.0000   -0.0000    0.0000   -0.0000   -0.0000   -0.0000
   15 H3     2pz       -0.0000   -0.0004   -0.0008    0.0006   -0.0000    0.0004    0.0007    0.0008    0.0002    0.0010
   16 H4     1s         0.3369    0.2858   -0.0982    0.3865   -0.2950   -0.3476   -0.1347   -0.4380   -0.2950   -0.4350
   17 H4     2s         0.0227    0.0234   -0.0030    0.0332   -0.0336   -0.0525   -0.0237   -0.0577   -0.0295   -0.0726
   18 H4     2px        0.0000   -0.0000    0.0000    0.0000    0.0000    0.0000    0.0000   -0.0000    0.0000   -0.0000
   19 H4     2py       -0.0000   -0.0000    0.0000   -0.0000    0.0000    0.0000    0.0000    0.0000    0.0000    0.0000
   20 H4     2pz        0.0004   -0.0003   -0.0008    0.0002    0.0004    0.0011   -0.0008    0.0004    0.0005    0.0003
   21 H5     1s         0.3662    0.0669   -0.3656    0.1184    0.3944    0.0968    0.4320    0.1531   -0.4077    0.4699
   22 H5     2s         0.0253    0.0014   -0.0303    0.0052    0.0416    0.0183    0.0615    0.0249   -0.0445    0.0779
   23 H5     2px       -0.0000    0.0000   -0.0000   -0.0000    0.0000   -0.0000    0.0000    0.0000    0.0000    0.0000
   24 H5     2py        0.0000    0.0000   -0.0000    0.0000   -0.0000    0.0000    0.0000    0.0000    0.0000    0.0000
   25 H5     2pz       -0.0002   -0.0007   -0.0001   -0.0007    0.0003   -0.0008    0.0008   -0.0006   -0.0004    0.0007
   26 H6     1s         0.3662   -0.0669   -0.3656   -0.1184    0.3944    0.0968   -0.4320    0.1531    0.4077   -0.4699
   27 H6     2s         0.0253   -0.0014   -0.0303   -0.0052    0.0416    0.0183   -0.0615    0.0249    0.0445   -0.0779
   28 H6     2px       -0.0000   -0.0000   -0.0000    0.0000    0.0000   -0.0000    0.0000    0.0000    0.0000    0.0000
   29 H6     2py       -0.0000   -0.0000   -0.0000    0.0000   -0.0000    0.0000    0.0000    0.0000   -0.0000   -0.0000
   30 H6     2pz        0.0002   -0.0007    0.0001   -0.0007   -0.0003    0.0008    0.0008    0.0006   -0.0004    0.0007
   31 H7     1s         0.3369   -0.2858   -0.0982   -0.3865   -0.2950   -0.3476    0.1347   -0.4380    0.2950    0.4350
   32 H7     2s         0.0227   -0.0234   -0.0030   -0.0332   -0.0336   -0.0525    0.0237   -0.0577    0.0295    0.0726
   33 H7     2px       -0.0000   -0.0000   -0.0000    0.0000   -0.0000   -0.0000   -0.0000    0.0000    0.0000    0.0000
   34 H7     2py       -0.0000   -0.0000    0.0000    0.0000    0.0000    0.0000    0.0000    0.0000    0.0000   -0.0000
   35 H7     2pz       -0.0004   -0.0003    0.0008    0.0002   -0.0004   -0.0011   -0.0008   -0.0004    0.0005    0.0003
   36 H8     1s         0.3005   -0.3475    0.0895   -0.2667   -0.3918    0.4402    0.1280    0.2804   -0.4120   -0.3824
   37 H8     2s         0.0215   -0.0234    0.0012   -0.0293   -0.0399    0.0705    0.0232    0.0319   -0.0471   -0.0625
   38 H8     2px        0.0000   -0.0000    0.0000    0.0000    0.0000    0.0000   -0.0000    0.0000   -0.0000   -0.0000
   39 H8     2py        0.0000   -0.0000    0.0000    0.0000    0.0000   -0.0000   -0.0000   -0.0000    0.0000    0.0000
   40 H8     2pz        0.0000   -0.0004    0.0008    0.0006    0.0000   -0.0004    0.0007   -0.0008    0.0002    0.0010
   41 H9     1s         0.2166   -0.3617    0.3908    0.3028    0.1468   -0.4500   -0.4519    0.3147   -0.1293    0.2817
   42 H9     2s         0.0139   -0.0264    0.0345    0.0336    0.0216   -0.0691   -0.0604    0.0329   -0.0072    0.0466
   43 H9     2px       -0.0000    0.0000    0.0000   -0.0000    0.0000   -0.0000    0.0000    0.0000    0.0000   -0.0000
   44 H9     2py        0.0000   -0.0000   -0.0000   -0.0000   -0.0000   -0.0000   -0.0000    0.0000   -0.0000   -0.0000
   45 H9     2pz       -0.0004    0.0004    0.0002    0.0007    0.0006   -0.0002   -0.0007    0.0007   -0.0002   -0.0001
   46 H10    1s         0.1563   -0.2860    0.3644    0.3670    0.2680    0.3369    0.4173   -0.4064    0.2859   -0.1879
   47 H10    2s         0.0117   -0.0217    0.0282    0.0293    0.0222    0.0426    0.0492   -0.0442    0.0288   -0.0249
   48 H10    2px        0.0000   -0.0000   -0.0000   -0.0000    0.0000   -0.0000   -0.0000    0.0000    0.0000    0.0000
   49 H10    2py       -0.0000    0.0000   -0.0000   -0.0000    0.0000    0.0000   -0.0000    0.0000    0.0000    0.0000
   50 H10    2pz       -0.0004    0.0006   -0.0006   -0.0004   -0.0002   -0.0018   -0.0017    0.0011   -0.0004    0.0012
 
 
      Orbital               11        12        13        14        15        16        17        18        19        20
      Energy            0.3262    0.3339    0.3483    0.3708    0.4032    0.4469    0.5078    0.5836    0.6696    0.7530
      Occ. No.          0.0000    0.0000    0.0000    0.0000    0.0000    0.0000    0.0000    0.0000    0.0000    0.0000
 
    1 H1     1s        -0.0618    0.0972    0.0951   -0.0602    0.0050    0.0543   -0.1055   -0.1330   -0.1250    0.1062
    2 H1     2s         0.1612   -0.2910   -0.3791    0.4319   -0.4593    0.4564   -0.4284   -0.3770   -0.2860    0.2082
    3 H1     2px        0.0000    0.0000    0.0000   -0.0000    0.0000    0.0000   -0.0000    0.0000    0.0000   -0.0000
    4 H1     2py        0.0000    0.0000    0.0000   -0.0000   -0.0000    0.0000    0.0000    0.0000   -0.0000    0.0000
    5 H1     2pz       -0.0016    0.0025    0.0029   -0.0044    0.0097   -0.0220    0.0471    0.0908    0.1562   -0.3086
    6 H2     1s        -0.1095    0.1574    0.1287   -0.0589    0.0038   -0.0053    0.0693    0.1517    0.1773   -0.1261
    7 H2     2s         0.1865   -0.2887   -0.2677    0.1322    0.0848   -0.3262    0.5421    0.6494    0.5644   -0.3534
    8 H2     2px       -0.0000   -0.0000    0.0000    0.0000    0.0000   -0.0000   -0.0000    0.0000   -0.0000   -0.0000
    9 H2     2py        0.0000    0.0000    0.0000    0.0000    0.0000    0.0000    0.0000    0.0000   -0.0000    0.0000
   10 H2     2pz        0.0003    0.0003    0.0039   -0.0135    0.0294   -0.0444    0.0443    0.0055   -0.0945    0.3295
   11 H3     1s        -0.1287    0.1379    0.0331    0.0686   -0.0726    0.0079    0.0071   -0.0947   -0.1973    0.1417
   12 H3     2s         0.2316   -0.2771   -0.0904   -0.2105    0.4273   -0.3813    0.0324   -0.4272   -0.6327    0.3904
   13 H3     2px       -0.0000    0.0000   -0.0000    0.0000   -0.0000   -0.0000    0.0000    0.0000   -0.0000   -0.0000
   14 H3     2py        0.0000   -0.0000    0.0000    0.0000    0.0000   -0.0000    0.0000   -0.0000   -0.0000    0.0000
   15 H3     2pz        0.0004    0.0006    0.0048   -0.0091    0.0008    0.0349   -0.0961   -0.1304   -0.0489   -0.2525
   16 H4     1s        -0.1450    0.1003   -0.0594    0.1126   -0.0294   -0.0062   -0.0638   -0.0305    0.1524   -0.1444
   17 H4     2s         0.2608   -0.1943    0.1482   -0.3688    0.1509    0.3442   -0.5730   -0.1389    0.4836   -0.3888
   18 H4     2px       -0.0000   -0.0000    0.0000    0.0000    0.0000    0.0000   -0.0000    0.0000   -0.0000   -0.0000
   19 H4     2py        0.0000   -0.0000    0.0000   -0.0000    0.0000    0.0000   -0.0000   -0.0000    0.0000   -0.0000
   20 H4     2pz        0.0003    0.0015    0.0051    0.0000   -0.0237    0.0370    0.0266    0.1649    0.1919    0.1520
   21 H5     1s        -0.1536    0.0339   -0.1292    0.0518    0.0590   -0.0075    0.0367    0.1372   -0.0563    0.1432
   22 H5     2s         0.2755   -0.0713    0.3046   -0.1822   -0.3377    0.3614    0.3473    0.5986   -0.1807    0.3834
   23 H5     2px        0.0000    0.0000   -0.0000   -0.0000    0.0000    0.0000   -0.0000   -0.0000   -0.0000   -0.0000
   24 H5     2py       -0.0000    0.0000   -0.0000    0.0000   -0.0000   -0.0000   -0.0000   -0.0000    0.0000   -0.0000
   25 H5     2pz       -0.0001    0.0021    0.0016    0.0111   -0.0151   -0.0354    0.0774   -0.0739   -0.2777   -0.0504
   26 H6     1s        -0.1536   -0.0339   -0.1292   -0.0518    0.0590    0.0075    0.0367   -0.1372   -0.0563   -0.1432
   27 H6     2s         0.2755    0.0713    0.3046    0.1822   -0.3377   -0.3614    0.3473   -0.5986   -0.1807   -0.3834
   28 H6     2px        0.0000   -0.0000   -0.0000    0.0000   -0.0000    0.0000   -0.0000    0.0000   -0.0000   -0.0000
   29 H6     2py        0.0000   -0.0000   -0.0000    0.0000   -0.0000    0.0000   -0.0000   -0.0000    0.0000    0.0000
   30 H6     2pz        0.0001    0.0021   -0.0016    0.0111    0.0151   -0.0354   -0.0774   -0.0739    0.2777   -0.0504
   31 H7     1s        -0.1450   -0.1003   -0.0594   -0.1126   -0.0294    0.0062   -0.0638    0.0305    0.1524    0.1444
   32 H7     2s         0.2608    0.1943    0.1482    0.3688    0.1509   -0.3442   -0.5730    0.1389    0.4836    0.3888
   33 H7     2px        0.0000   -0.0000   -0.0000    0.0000   -0.0000    0.0000   -0.0000    0.0000    0.0000   -0.0000
   34 H7     2py        0.0000   -0.0000    0.0000    0.0000    0.0000    0.0000   -0.0000   -0.0000    0.0000    0.0000
   35 H7     2pz       -0.0003    0.0015   -0.0051    0.0000    0.0237    0.0370   -0.0266    0.1649   -0.1919    0.1520
   36 H8     1s        -0.1287   -0.1379    0.0331   -0.0686   -0.0726   -0.0079    0.0071    0.0947   -0.1973   -0.1417
   37 H8     2s         0.2316    0.2771   -0.0904    0.2105    0.4273    0.3813    0.0324    0.4272   -0.6327   -0.3904
   38 H8     2px       -0.0000   -0.0000    0.0000    0.0000    0.0000   -0.0000   -0.0000    0.0000    0.0000   -0.0000
   39 H8     2py       -0.0000   -0.0000    0.0000    0.0000    0.0000    0.0000   -0.0000    0.0000   -0.0000   -0.0000
   40 H8     2pz       -0.0004    0.0006   -0.0048   -0.0091   -0.0008    0.0349    0.0961   -0.1304    0.0489   -0.2525
   41 H9     1s        -0.1095   -0.1574    0.1287    0.0589    0.0038    0.0053    0.0693   -0.1517    0.1773    0.1261
   42 H9     2s         0.1865    0.2887   -0.2677   -0.1322    0.0848    0.3262    0.5421   -0.6494    0.5644    0.3534
   43 H9     2px        0.0000    0.0000    0.0000   -0.0000    0.0000    0.0000   -0.0000   -0.0000   -0.0000    0.0000
   44 H9     2py       -0.0000   -0.0000   -0.0000   -0.0000   -0.0000   -0.0000   -0.0000    0.0000   -0.0000   -0.0000
   45 H9     2pz       -0.0003    0.0003   -0.0039   -0.0135   -0.0294   -0.0444   -0.0443    0.0055    0.0945    0.3295
   46 H10    1s        -0.0618   -0.0972    0.0951    0.0602    0.0050   -0.0543   -0.1055    0.1330   -0.1250   -0.1062
   47 H10    2s         0.1612    0.2910   -0.3791   -0.4319   -0.4593   -0.4564   -0.4284    0.3770   -0.2860   -0.2082
   48 H10    2px       -0.0000   -0.0000   -0.0000   -0.0000    0.0000    0.0000   -0.0000    0.0000   -0.0000   -0.0000
   49 H10    2py        0.0000    0.0000   -0.0000   -0.0000    0.0000   -0.0000   -0.0000    0.0000    0.0000   -0.0000
   50 H10    2pz        0.0016    0.0025   -0.0029   -0.0044   -0.0097   -0.0220   -0.0471    0.0908   -0.1562   -0.3086
 
 
      Orbital               21        22        23        24        25        26        27        28        29        30
      Energy            0.7703    0.8750    0.8750    0.8835    0.8835    0.8972    0.8972    0.9153    0.9153    0.9363
      Occ. No.          0.0000    0.0000    0.0000    0.0000    0.0000    0.0000    0.0000    0.0000    0.0000    0.0000
 
    1 H1     1s        -0.0746    0.0000    0.0000    0.0000   -0.0000   -0.0000   -0.0000   -0.0000   -0.0000    0.0000
    2 H1     2s        -0.1405   -0.0000   -0.0000   -0.0000    0.0000    0.0000    0.0000   -0.0000    0.0000    0.0000
    3 H1     2px        0.0000    0.1079    0.0370   -0.1638    0.1466   -0.0174    0.3096   -0.3234    0.1961    0.4091
    4 H1     2py       -0.0000   -0.0370    0.1079    0.1466    0.1638    0.3096    0.0174   -0.1961   -0.3234   -0.0786
    5 H1     2pz        0.2805    0.0000    0.0000    0.0000    0.0000    0.0000    0.0000   -0.0000   -0.0000    0.0000
    6 H2     1s         0.0709    0.0000   -0.0000    0.0000   -0.0000   -0.0000   -0.0000   -0.0000    0.0000   -0.0000
    7 H2     2s         0.2004   -0.0000   -0.0000    0.0000   -0.0000   -0.0000   -0.0000    0.0000   -0.0000   -0.0000
    8 H2     2px        0.0000    0.2100    0.0720   -0.2800    0.2505   -0.0232    0.4131   -0.2760    0.1674    0.1260
    9 H2     2py       -0.0000   -0.0720    0.2100    0.2505    0.2800    0.4131    0.0232   -0.1674   -0.2760   -0.0242
   10 H2     2pz       -0.3223    0.0000    0.0000   -0.0000   -0.0000   -0.0000   -0.0000   -0.0000    0.0000    0.0000
   11 H3     1s        -0.0593    0.0000    0.0000    0.0000    0.0000    0.0000    0.0000   -0.0000    0.0000    0.0000
   12 H3     2s        -0.1651    0.0000    0.0000   -0.0000    0.0000    0.0000    0.0000   -0.0000   -0.0000    0.0000
   13 H3     2px        0.0000    0.2946    0.1009   -0.3059    0.2737   -0.0128    0.2273    0.0986   -0.0598   -0.3771
   14 H3     2py        0.0000   -0.1009    0.2946    0.2737    0.3059    0.2273    0.0128    0.0598    0.0986    0.0725
   15 H3     2pz        0.2930   -0.0000   -0.0000   -0.0000    0.0000    0.0000    0.0000    0.0000   -0.0000   -0.0000
   16 H4     1s         0.0377    0.0000    0.0000    0.0000   -0.0000   -0.0000   -0.0000    0.0000    0.0000    0.0000
   17 H4     2s         0.1000   -0.0000   -0.0000    0.0000   -0.0000   -0.0000   -0.0000    0.0000    0.0000    0.0000
   18 H4     2px       -0.0000    0.3546    0.1215   -0.2341    0.2095    0.0065   -0.1152    0.3555   -0.2156   -0.2291
   19 H4     2py        0.0000   -0.1215    0.3546    0.2095    0.2341   -0.1152   -0.0065    0.2156    0.3555    0.0440
   20 H4     2pz       -0.2596    0.0000    0.0000   -0.0000   -0.0000   -0.0000    0.0000    0.0000    0.0000    0.0000
   21 H5     1s        -0.0123   -0.0000    0.0000   -0.0000    0.0000    0.0000    0.0000   -0.0000   -0.0000   -0.0000
   22 H5     2s        -0.0328    0.0000    0.0000   -0.0000    0.0000    0.0000    0.0000   -0.0000   -0.0000   -0.0000
   23 H5     2px       -0.0000    0.3860    0.1322   -0.0870    0.0779    0.0213   -0.3791    0.1943   -0.1178    0.3152
   24 H5     2py       -0.0000   -0.1322    0.3860    0.0779    0.0870   -0.3791   -0.0213    0.1178    0.1943   -0.0606
   25 H5     2pz        0.2417   -0.0000    0.0000   -0.0000   -0.0000   -0.0000   -0.0000    0.0000   -0.0000   -0.0000
   26 H6     1s        -0.0123   -0.0000   -0.0000    0.0000   -0.0000   -0.0000   -0.0000    0.0000    0.0000    0.0000
   27 H6     2s        -0.0328    0.0000    0.0000    0.0000   -0.0000   -0.0000   -0.0000    0.0000    0.0000    0.0000
   28 H6     2px       -0.0000    0.3860    0.1322    0.0870   -0.0779    0.0213   -0.3791   -0.1943    0.1178    0.3152
   29 H6     2py        0.0000   -0.1322    0.3860   -0.0779   -0.0870   -0.3791   -0.0213   -0.1178   -0.1943   -0.0606
   30 H6     2pz       -0.2417    0.0000   -0.0000   -0.0000    0.0000    0.0000    0.0000   -0.0000   -0.0000    0.0000
   31 H7     1s         0.0377   -0.0000    0.0000    0.0000    0.0000   -0.0000    0.0000   -0.0000   -0.0000   -0.0000
   32 H7     2s         0.1000   -0.0000   -0.0000   -0.0000    0.0000    0.0000    0.0000   -0.0000   -0.0000   -0.0000
   33 H7     2px       -0.0000    0.3546    0.1215    0.2341   -0.2095    0.0065   -0.1152   -0.3555    0.2156   -0.2291
   34 H7     2py        0.0000   -0.1215    0.3546   -0.2095   -0.2341   -0.1152   -0.0065   -0.2156   -0.3555    0.0440
   35 H7     2pz        0.2596   -0.0000    0.0000    0.0000   -0.0000   -0.0000   -0.0000    0.0000    0.0000   -0.0000
   36 H8     1s        -0.0593    0.0000    0.0000    0.0000    0.0000    0.0000   -0.0000   -0.0000   -0.0000    0.0000
   37 H8     2s        -0.1651    0.0000   -0.0000    0.0000   -0.0000   -0.0000   -0.0000    0.0000    0.0000    0.0000
   38 H8     2px       -0.0000    0.2946    0.1009    0.3059   -0.2737   -0.0128    0.2273   -0.0986    0.0598   -0.3771
   39 H8     2py       -0.0000   -0.1009    0.2946   -0.2737   -0.3059    0.2273    0.0128   -0.0598   -0.0986    0.0725
   40 H8     2pz       -0.2930   -0.0000    0.0000   -0.0000    0.0000    0.0000    0.0000   -0.0000   -0.0000   -0.0000
   41 H9     1s         0.0709   -0.0000   -0.0000    0.0000    0.0000    0.0000   -0.0000    0.0000   -0.0000   -0.0000
   42 H9     2s         0.2004   -0.0000    0.0000   -0.0000    0.0000    0.0000    0.0000   -0.0000   -0.0000   -0.0000
   43 H9     2px       -0.0000    0.2100    0.0720    0.2800   -0.2505   -0.0232    0.4131    0.2760   -0.1674    0.1260
   44 H9     2py       -0.0000   -0.0720    0.2100   -0.2505   -0.2800    0.4131    0.0232    0.1674    0.2760   -0.0242
   45 H9     2pz        0.3223    0.0000    0.0000   -0.0000   -0.0000    0.0000   -0.0000    0.0000    0.0000    0.0000
   46 H10    1s        -0.0746    0.0000   -0.0000    0.0000   -0.0000    0.0000   -0.0000   -0.0000    0.0000    0.0000
   47 H10    2s        -0.1405   -0.0000   -0.0000    0.0000    0.0000   -0.0000   -0.0000    0.0000   -0.0000    0.0000
   48 H10    2px       -0.0000    0.1079    0.0370    0.1638   -0.1466   -0.0174    0.3096    0.3234   -0.1961    0.4091
   49 H10    2py        0.0000   -0.0370    0.1079   -0.1466   -0.1638    0.3096    0.0174    0.1961    0.3234   -0.0786
   50 H10    2pz       -0.2805   -0.0000   -0.0000    0.0000    0.0000   -0.0000    0.0000    0.0000   -0.0000   -0.0000
 
 
      Orbital               31        32        33        34        35        36        37        38        39        40
      Energy            0.9363    0.9592    0.9592    0.9815    0.9815    0.9991    1.0017    1.0017    1.0151    1.0177
      Occ. No.          0.0000    0.0000    0.0000    0.0000    0.0000    0.0000    0.0000    0.0000    0.0000    0.0000
 
    1 H1     1s        -0.0000    0.0000    0.0000   -0.0000    0.0000    0.0501    0.0000    0.0000   -0.0764   -0.0000
    2 H1     2s        -0.0000   -0.0000    0.0000   -0.0000   -0.0000    0.1033    0.0000   -0.0000   -0.1662   -0.0000
    3 H1     2px       -0.0786   -0.4174    0.0760    0.3765    0.1310   -0.0000   -0.1141   -0.3164    0.0000   -0.2370
    4 H1     2py       -0.4091   -0.0760   -0.4174    0.1310   -0.3765    0.0000   -0.3164    0.1141    0.0000   -0.0539
    5 H1     2pz       -0.0000   -0.0000    0.0000   -0.0000   -0.0000    0.1415    0.0000   -0.0000   -0.2468   -0.0000
    6 H2     1s         0.0000    0.0000    0.0000    0.0000    0.0000   -0.1575   -0.0000    0.0000    0.2180    0.0000
    7 H2     2s         0.0000    0.0000   -0.0000    0.0000    0.0000   -0.3518   -0.0000    0.0000    0.4987    0.0000
    8 H2     2px       -0.0242    0.1111   -0.0202   -0.3040   -0.1058    0.0000    0.1462    0.4055   -0.0000    0.3911
    9 H2     2py       -0.1260    0.0202    0.1111   -0.1058    0.3040   -0.0000    0.4055   -0.1462    0.0000    0.0890
   10 H2     2pz       -0.0000    0.0000   -0.0000    0.0000    0.0000   -0.2146   -0.0000    0.0000    0.2875    0.0000
   11 H3     1s         0.0000   -0.0000    0.0000   -0.0000   -0.0000    0.2897    0.0000   -0.0000   -0.3176   -0.0000
   12 H3     2s        -0.0000   -0.0000    0.0000   -0.0000   -0.0000    0.6600    0.0000   -0.0000   -0.7392   -0.0000
   13 H3     2px        0.0725    0.3862   -0.0703   -0.1212   -0.0422   -0.0000   -0.0786   -0.2180    0.0000   -0.4235
   14 H3     2py        0.3771    0.0703    0.3862   -0.0422    0.1212    0.0000   -0.2180    0.0786    0.0000   -0.0963
   15 H3     2pz        0.0000    0.0000    0.0000   -0.0000   -0.0000    0.2098    0.0000   -0.0000   -0.1005   -0.0000
   16 H4     1s         0.0000    0.0000   -0.0000    0.0000   -0.0000   -0.4034   -0.0000    0.0000    0.2852    0.0000
   17 H4     2s         0.0000    0.0000   -0.0000    0.0000    0.0000   -0.9269   -0.0000    0.0000    0.6678    0.0000
   18 H4     2px        0.0440   -0.2259    0.0412    0.4044    0.1408    0.0000   -0.0423   -0.1173   -0.0000    0.3230
   19 H4     2py        0.2291   -0.0412   -0.2259    0.1408   -0.4044    0.0000   -0.1173    0.0423   -0.0000    0.0735
   20 H4     2pz        0.0000   -0.0000    0.0000   -0.0000    0.0000   -0.1488   -0.0000    0.0000   -0.1805   -0.0000
   21 H5     1s        -0.0000   -0.0000    0.0000   -0.0000   -0.0000    0.4688    0.0000   -0.0000   -0.1139   -0.0000
   22 H5     2s        -0.0000   -0.0000    0.0000   -0.0000   -0.0000    1.0786    0.0000   -0.0000   -0.2687   -0.0000
   23 H5     2px       -0.0606   -0.3203    0.0583   -0.2190   -0.0762    0.0000    0.1346    0.3735    0.0000   -0.1200
   24 H5     2py       -0.3152   -0.0583   -0.3203   -0.0762    0.2190   -0.0000    0.3735   -0.1346   -0.0000   -0.0273
   25 H5     2pz        0.0000    0.0000   -0.0000    0.0000   -0.0000    0.0527    0.0000   -0.0000    0.3827    0.0000
   26 H6     1s         0.0000    0.0000   -0.0000    0.0000    0.0000   -0.4688   -0.0000    0.0000   -0.1139   -0.0000
   27 H6     2s         0.0000    0.0000   -0.0000    0.0000    0.0000   -1.0786   -0.0000    0.0000   -0.2687   -0.0000
   28 H6     2px       -0.0606    0.3203   -0.0583   -0.2190   -0.0762   -0.0000   -0.1346   -0.3735    0.0000   -0.1200
   29 H6     2py       -0.3152    0.0583    0.3203   -0.0762    0.2190    0.0000   -0.3735    0.1346    0.0000   -0.0273
   30 H6     2pz       -0.0000   -0.0000   -0.0000   -0.0000    0.0000    0.0527    0.0000   -0.0000   -0.3827   -0.0000
   31 H7     1s        -0.0000    0.0000    0.0000   -0.0000   -0.0000    0.4034    0.0000   -0.0000    0.2852    0.0000
   32 H7     2s        -0.0000   -0.0000    0.0000   -0.0000   -0.0000    0.9269    0.0000   -0.0000    0.6678    0.0000
   33 H7     2px        0.0440    0.2259   -0.0412    0.4044    0.1408    0.0000    0.0423    0.1173   -0.0000    0.3230
   34 H7     2py        0.2291    0.0412    0.2259    0.1408   -0.4044   -0.0000    0.1173   -0.0423   -0.0000    0.0735
   35 H7     2pz        0.0000    0.0000   -0.0000    0.0000   -0.0000   -0.1488   -0.0000    0.0000    0.1805    0.0000
   36 H8     1s        -0.0000    0.0000   -0.0000    0.0000    0.0000   -0.2897   -0.0000    0.0000   -0.3176   -0.0000
   37 H8     2s         0.0000   -0.0000   -0.0000    0.0000    0.0000   -0.6600   -0.0000    0.0000   -0.7392   -0.0000
   38 H8     2px        0.0725   -0.3862    0.0703   -0.1212   -0.0422   -0.0000    0.0786    0.2180    0.0000   -0.4235
   39 H8     2py        0.3771   -0.0703   -0.3862   -0.0422    0.1212   -0.0000    0.2180   -0.0786    0.0000   -0.0963
   40 H8     2pz       -0.0000    0.0000    0.0000   -0.0000   -0.0000    0.2098    0.0000   -0.0000    0.1005    0.0000
   41 H9     1s        -0.0000    0.0000    0.0000   -0.0000   -0.0000    0.1575    0.0000   -0.0000    0.2180    0.0000
   42 H9     2s        -0.0000   -0.0000    0.0000   -0.0000   -0.0000    0.3518    0.0000   -0.0000    0.4987    0.0000
   43 H9     2px       -0.0242   -0.1111    0.0202   -0.3040   -0.1058   -0.0000   -0.1462   -0.4055   -0.0000    0.3911
   44 H9     2py       -0.1260   -0.0202   -0.1111   -0.1058    0.3040    0.0000   -0.4055    0.1462   -0.0000    0.0890
   45 H9     2pz       -0.0000   -0.0000   -0.0000    0.0000    0.0000   -0.2146   -0.0000    0.0000   -0.2875   -0.0000
[...]
   31 H7     1s        -0.0000    0.0000   -0.0000    0.0290   -0.0945   -0.0638    0.0155    0.0507    0.0233   -0.0060
   32 H7     2s         0.0000    0.0000   -0.0000    0.0627   -0.2154   -0.1301    0.0277    0.0782    0.0331   -0.0056
   33 H7     2px       -0.0735    0.3952   -0.0738   -0.0000   -0.0000   -0.0000    0.0000   -0.0000   -0.0000   -0.0000
   34 H7     2py        0.3230    0.0738    0.3952   -0.0000    0.0000    0.0000   -0.0000   -0.0000    0.0000   -0.0000
   35 H7     2pz       -0.0000    0.0000    0.0000    0.4497    0.2414   -0.2547   -0.4641   -0.1292    0.3745    0.4512
   36 H8     1s         0.0000   -0.0000   -0.0000   -0.2025   -0.0691    0.0203    0.0500    0.0314   -0.0009   -0.0134
   37 H8     2s         0.0000   -0.0000   -0.0000   -0.4701   -0.1519    0.0410    0.0844    0.0423   -0.0061   -0.0193
   38 H8     2px        0.0963   -0.3287    0.0614    0.0000    0.0000    0.0000    0.0000    0.0000   -0.0000    0.0000
   39 H8     2py       -0.4235   -0.0614   -0.3287    0.0000   -0.0000   -0.0000    0.0000    0.0000    0.0000    0.0000
   40 H8     2pz        0.0000    0.0000   -0.0000   -0.2006   -0.4442   -0.4292   -0.1339    0.2607    0.4827    0.3716
   41 H9     1s        -0.0000    0.0000    0.0000    0.2117    0.1722    0.1207    0.0686    0.0245   -0.0025   -0.0085
   42 H9     2s        -0.0000    0.0000    0.0000    0.4875    0.3837    0.2499    0.1317    0.0496    0.0069   -0.0047
   43 H9     2px       -0.0890    0.2358   -0.0440   -0.0000   -0.0000    0.0000    0.0000   -0.0000    0.0000    0.0000
   44 H9     2py        0.3911    0.0440    0.2358   -0.0000    0.0000    0.0000    0.0000   -0.0000   -0.0000    0.0000
   45 H9     2pz        0.0000   -0.0000   -0.0000   -0.2246   -0.0510    0.1797    0.3861    0.4916    0.4509    0.2686
   46 H10    1s         0.0000    0.0000   -0.0000   -0.0855   -0.0847   -0.0796   -0.0722   -0.0613   -0.0453   -0.0243
   47 H10    2s         0.0000   -0.0000   -0.0000   -0.1968   -0.2008   -0.1854   -0.1573   -0.1213   -0.0817   -0.0410
   48 H10    2px        0.0539   -0.1251    0.0234    0.0000    0.0000   -0.0000   -0.0000   -0.0000   -0.0000   -0.0000
   49 H10    2py       -0.2370   -0.0234   -0.1251    0.0000    0.0000    0.0000   -0.0000   -0.0000    0.0000   -0.0000
   50 H10    2pz       -0.0000    0.0000    0.0000    0.3308    0.3880    0.4116    0.3964    0.3400    0.2485    0.1311
--
 
      Von Neumann Entropy (Root  1) =  4.83889
 

      Mulliken population analysis for root number:  1
      -----------------------------------------------
 
 
++    Molecular charges:
      ------------------
 
      Mulliken charges per centre and basis function type
      ---------------------------------------------------
 
                H1      H2      H3      H4      H5      H6      H7      H8      H9      H10   
      1s       0.9935  1.0009  1.0016  1.0013  1.0014  1.0014  1.0013  1.0016  1.0009  0.9935
      2s       0.0055  0.0002 -0.0016 -0.0013 -0.0014 -0.0014 -0.0013 -0.0016  0.0002  0.0055
      2px      0.0000  0.0000  0.0000  0.0000  0.0000  0.0000  0.0000  0.0000  0.0000  0.0000
      2pz     -0.0001  0.0001  0.0000 -0.0000 -0.0000 -0.0000 -0.0000  0.0000  0.0001 -0.0001
      2py      0.0000  0.0000  0.0000  0.0000  0.0000  0.0000  0.0000  0.0000  0.0000  0.0000
      Total    0.9989  1.0011  1.0000  1.0000  1.0000  1.0000  1.0000  1.0000  1.0011  0.9989
 
      N-E      0.0011 -0.0011  0.0000  0.0000  0.0000  0.0000  0.0000  0.0000 -0.0011  0.0011
 
      Total electronic charge=   10.000000
 
      Total            charge=   -0.000000
--
 
 

      Expectation values of various properties for root number:  1
      -----------------------------------------------------------
 
 
++    Molecular properties:
      ---------------------
 
      Charge (e):
                      =   -0.0000
      Dipole Moment (Debye):
      Origin of the operator (Ang)=    0.0000    0.0000    0.0000
                   X= -1.0643E-12               Y=  5.5904E-13               Z= -4.8112E-11           Total=  4.8127E-11
      Quadrupole Moment (Debye*Ang):
      Origin of the operator (Ang)=    0.0000    0.0000   12.3000
                  XX= -1.5120E+01              XY= -6.1689E-26              XZ=  6.7760E-12              YY= -1.5120E+01
                  YZ= -6.8932E-13              ZZ= -1.5215E+01
      In traceless form (Debye*Ang)
                  XX=  4.7609E-02              XY= -9.2534E-26              XZ=  1.0164E-11              YY=  4.7609E-02
                  YZ= -1.0340E-12              ZZ= -9.5219E-02
--
 

      LoProp population analysis for root number:  1
      -----------------------------------------------
 
 
++    LoProp analysis:
      ----------------
 
 
 
  Input file to MOLDEN was generated!
 
 
++    Static properties:
      ------------------
 
 
      LoProp Charges per center
 

                   H1       H2       H3       H4       H5       H6       H7       H8       H9       H10   
      Nuclear      1.0000   1.0000   1.0000   1.0000   1.0000   1.0000   1.0000   1.0000   1.0000   1.0000
      Electronic  -1.0001  -0.9999  -1.0000  -1.0000  -1.0000  -1.0000  -1.0000  -1.0000  -0.9999  -1.0001
 
      Total       -0.0001   0.0001   0.0000  -0.0000   0.0000   0.0000  -0.0000   0.0000   0.0001  -0.0001
--
 
 
      Natural Bond Order analysis for root number:  1
 
++    Natural Bond Order analysis
      ---------------------------
      Based on LoProp computed density
      -------------------------------------------------------------------------------------
      Atom A       Atom B       Bond Order
      -------------------------------------------------------------------------------------
      The remaining   10.000 electrons are to be considered as diffuse
--
 
--
 
 
  Input file to MOLDEN was generated!
 
      Average orbitals are written to the RASORB file
      Natural orbitals for root   1 are written to the RASORB.1 file
      Spin density orbitals for root   1 are written to the SPDORB.1 file
 
--- Stop Module: rasscf at Mon Nov 18 19:02:17 2024 /rc=_RC_ALL_IS_WELL_ ---
*** files: H10_2.73.LprOrb H10_2.73.rasscf.molden H10_2.73.LoProp.molden H10_2.73.RasOrb H10_2.73.RasOrb.1 H10_2.73.rasscf.h5 H10_2.73.SpdOrb.1 xmldump
    saved to directory /home/grierjones/DDCASPT2/hydrogen_comps/H10_chain/H10_2.73
--- Module rasscf spent 11 seconds ---

>>> COPY /tmp/H10_2.73/H10_2.73.rasscf.h5 /home/grierjones/DDCASPT2/hydrogen_comps/H10_chain/H10_2.73/

>>> COPY /tmp/H10_2.73/GMJ_Fock_MO.csv /home/grierjones/DDCASPT2/hydrogen_comps/H10_chain/H10_2.73/H10_2.73.GMJ_Fock_MO.csv

>>> COPY /tmp/H10_2.73/GMJ_PT2_Fock_MO.csv /home/grierjones/DDCASPT2/hydrogen_comps/H10_chain/H10_2.73/H10_2.73.GMJ_PT2_Fock_MO.csv

*** symbolic link created: INPORB -> H10_2.73.RasOrb
--- Start Module: motra at Mon Nov 18 19:02:17 2024 ---
 
()()()()()()()()()()()()()()()()()()()()()()()()()()()()()()()()()()()()()()()()()()()()()()()()()()

                                               &MOTRA

                                   only a single process is used
                       available to each process: 2.0 GB of memory, 1 thread?
()()()()()()()()()()()()()()()()()()()()()()()()()()()()()()()()()()()()()()()()()()()()()()()()()()
 
 
      *** WARNING: Default frozen orbitals is overwritten by user input.
      *** Default values:   0
 
      Header of the integral files:
      
       Integrals generated by seward 4.2.0  , Mon Nov 18 19:02:05 2024
 
 
      Header of MO coefficients source file:
      * RASSCF average (pseudo-natural) orbitals                                      
 
 
      Cartesian coordinates in Angstrom:
      -----------------------------------------------------
      No.  Label        X            Y            Z        
      -----------------------------------------------------
       1   H1         0.00000000   0.00000000   0.00000000
       2   H2         0.00000000   0.00000000   2.73333300
       3   H3         0.00000000   0.00000000   5.46666700
       4   H4         0.00000000   0.00000000   8.20000000
       5   H5         0.00000000   0.00000000  10.93333300
       6   H6         0.00000000   0.00000000  13.66666700
       7   H7         0.00000000   0.00000000  16.40000000
       8   H8         0.00000000   0.00000000  19.13333300
       9   H9         0.00000000   0.00000000  21.86666700
      10   H10        0.00000000   0.00000000  24.60000000
      -----------------------------------------------------
      Nuclear repulsion energy =    3.73450989
 
      Orbital specifications:
      -----------------------
 
      Symmetry species:              1
      Number of basis functions:    50
      Frozen orbitals:               0
      Deleted orbitals:              0
      Number of orbitals used:      50

       SYMMETRY  BASIS FUNCTIONS       ORBITALS      INTEGRALS   CPU(SEC)  I/O(SEC)
 
        1 1 1 1   50  50  50  50    50  50  50  50      813450       0.00      0.00

       TOTAL CPU TIME(SEC)    0.38TOTAL I/O TIME(SEC)    1.05
 
--- Stop Module: motra at Mon Nov 18 19:02:18 2024 /rc=_RC_ALL_IS_WELL_ ---
*** files: xmldump
    saved to directory /home/grierjones/DDCASPT2/hydrogen_comps/H10_chain/H10_2.73
--- Module motra spent 1 second ---

>>> COPY /tmp/H10_2.73/GMJ_one_int_indx.csv /home/grierjones/DDCASPT2/hydrogen_comps/H10_chain/H10_2.73/H10_2.73.GMJ_one_int_indx.csv

>>> COPY /tmp/H10_2.73/GMJ_one_int.csv /home/grierjones/DDCASPT2/hydrogen_comps/H10_chain/H10_2.73/H10_2.73.GMJ_one_int.csv

>>> COPY /tmp/H10_2.73/GMJ_two_int_indx.csv /home/grierjones/DDCASPT2/hydrogen_comps/H10_chain/H10_2.73/H10_2.73.GMJ_two_int_indx.csv

>>> COPY /tmp/H10_2.73/GMJ_two_int.csv /home/grierjones/DDCASPT2/hydrogen_comps/H10_chain/H10_2.73/H10_2.73.GMJ_two_int.csv

*** symbolic link created: INPORB -> H10_2.73.RasOrb
--- Start Module: caspt2 at Mon Nov 18 19:02:18 2024 ---
 
()()()()()()()()()()()()()()()()()()()()()()()()()()()()()()()()()()()()()()()()()()()()()()()()()()

                                              &CASPT2

                                   only a single process is used
                       available to each process: 2.0 GB of memory, 1 thread?
()()()()()()()()()()()()()()()()()()()()()()()()()()()()()()()()()()()()()()()()()()()()()()()()()()
 
 Cholesky algorithm in CASPT2 =    1
 
 ###############################################################################
 ###############################################################################
 ###                                                                         ###
 ###                                                                         ###
 ###    User changed nr of frozen orbitals.                                  ###
 ###                                                                         ###
 ###                                                                         ###
 ###############################################################################
 ###############################################################################
 
++    Wave function specifications:
      -----------------------------
 
      Number of closed shell electrons           0
      Number of electrons in active shells      10
      Max number of holes in RAS1 space          0
      Max number of electrons in RAS3 space      0
      Number of inactive orbitals                0
      Number of active orbitals                 10
      Number of secondary orbitals              40
      Spin quantum number                      0.0
      State symmetry                             1
      Number of CSFs                         19404
      Number of root(s) available                1
      Root passed to geometry opt.               1
      A file JOBMIX will be created.
      This is a CASSCF or RASSCF reference function
--
 
++    Orbital specifications:
      -----------------------
 
      Symmetry species                           1
                                                 a
      Frozen orbitals                            0
      Inactive orbitals                          0
      Active orbitals                           10
      Secondary orbitals                        40
      Deleted orbitals                           0
      Number of basis functions                 50
--
 
      Type of Fock operator: STANDARD
      Type of 0-order Hamiltonian: STANDARD WITH DEFAULT IPEA
        "IP-EA" denominator shift =      0.25
      The input orbitals and the CI vector will be transformed.
 
--------------------------------------------------------------------------------
 Estimated memory requirements:
  POLY3 :                  3551880
  RHS:                      835500
  SIGMA :                   430400
  PRPCTL:                        0
 Available workspace:    230354915
 
++ CASPT2 computation for group   1
 
********************************************************************************
 Multi-State initialization phase begins for group   1
--------------------------------------------------------------------------------
********************************************************************************
 Compute H0 matrices for state    1
--------------------------------------------------------------------------------
--------------------------------------------------------------------------------
 H0 matrices have been computed.
 
********************************************************************************
  CASPT2 EQUATION SOLUTION
--------------------------------------------------------------------------------
 
  Total nr of CASPT2 parameters:
   Before reduction:      120200
   After  reduction:      119240
 
 The contributions to the second order correlation energy in atomic units.
-----------------------------------------------------------------------------------------------------------------------------
  IT.      VJTU        VJTI        ATVX        AIVX        VJAI        BVAT        BJAT        BJAI        TOTAL       RNORM  
-----------------------------------------------------------------------------------------------------------------------------
   1     0.000000    0.000000   -0.000583    0.000000    0.000000   -0.001606    0.000000    0.000000   -0.002189    0.000603
   2     0.000000    0.000000   -0.000589    0.000000    0.000000   -0.001608    0.000000    0.000000   -0.002197    0.000118
   3     0.000000    0.000000   -0.000591    0.000000    0.000000   -0.001608    0.000000    0.000000   -0.002199    0.000036
   4     0.000000    0.000000   -0.000590    0.000000    0.000000   -0.001608    0.000000    0.000000   -0.002198    0.000007
   5     0.000000    0.000000   -0.000590    0.000000    0.000000   -0.001608    0.000000    0.000000   -0.002198    0.000002
-------------------------------------------------------------------------------------------------------------------
 
  FINAL CASPT2 RESULT:
 
  Correlation energy /Case, /Symm, and sums:
 VJTU      0.00000000  0.00000000
 VJTIP     0.00000000  0.00000000
 VJTIM     0.00000000  0.00000000
 ATVX     -0.00059002 -0.00059002
 AIVX      0.00000000  0.00000000
 VJAIP     0.00000000  0.00000000
 VJAIM     0.00000000  0.00000000
 BVATP    -0.00141462 -0.00141462
 BVATM    -0.00019381 -0.00019381
 BJATP     0.00000000  0.00000000
 BJATM     0.00000000  0.00000000
 BJAIP     0.00000000  0.00000000
 BJAIM     0.00000000  0.00000000
 Summed:  -0.00219846 -0.00219846
 
      Reference energy:          -4.9928832537
      E2 (Non-variational):      -0.0021984558
      E2 (Variational):          -0.0021984555
      Total energy:              -4.9950817092
      Residual norm:              0.0000002777
      Reference weight:           0.99857
 
      Contributions to the CASPT2 correlation energy
      Active & Virtual Only:         -0.0021984558
      One Inactive Excited:           0.0000000000
      Two Inactive Excited:           0.0000000000
 
 
++ Denominators, etc.
----------------------------------------------------------------------------------------------------
 Report on small energy denominators, large coefficients, and large energy contributions.
CASE  SYMM ACTIVE-MIX  NON-ACTIVE INDICES          DENOMINATOR     RHS VALUE       COEFFICIENT     CONTRIBUTION
--
 
   (Skipping property calculation,
    use PROP keyword to activate)
--
 
  Total CASPT2 energies:
::    CASPT2 Root  1     Total energy:     -4.99508171
 
  A NEW JOBIPH FILE NAMED 'JOBMIX' IS PREPARED.
********************************************************************************
--- Stop Module: caspt2 at Mon Nov 18 19:02:21 2024 /rc=_RC_ALL_IS_WELL_ ---
*** files: xmldump
    saved to directory /home/grierjones/DDCASPT2/hydrogen_comps/H10_chain/H10_2.73
--- Module caspt2 spent 2 seconds ---

>>> EXPORT i = B

>>> EXPORT j = P

>>> IF (-FILE GMJ_e2_${i}_${j}.csv)
(Skipped)

>>> END FOREACH

>>> EXPORT j = M

>>> IF (-FILE GMJ_e2_${i}_${j}.csv)
(Skipped)

>>> END FOREACH

>>> END FOREACH

>>> EXPORT i = E

>>> EXPORT j = P

>>> IF (-FILE GMJ_e2_${i}_${j}.csv)
(Skipped)

>>> END FOREACH

>>> EXPORT j = M

>>> IF (-FILE GMJ_e2_${i}_${j}.csv)
(Skipped)

>>> END FOREACH

>>> END FOREACH

>>> EXPORT i = F

>>> EXPORT j = P

>>> IF (-FILE GMJ_e2_${i}_${j}.csv)

>>> COPY /tmp/H10_2.73/GMJ_RHS_F_P.csv /home/grierjones/DDCASPT2/hydrogen_comps/H10_chain/H10_2.73/GMJ_RHS_F_P.csv

>>> COPY /tmp/H10_2.73/GMJ_IVECW_F_P.csv /home/grierjones/DDCASPT2/hydrogen_comps/H10_chain/H10_2.73/GMJ_IVECW_F_P.csv

>>> COPY /tmp/H10_2.73/GMJ_IVECX_F_P.csv /home/grierjones/DDCASPT2/hydrogen_comps/H10_chain/H10_2.73/GMJ_IVECX_F_P.csv

>>> COPY /tmp/H10_2.73/GMJ_IVECC2_F_P.csv /home/grierjones/DDCASPT2/hydrogen_comps/H10_chain/H10_2.73/GMJ_IVECC2_F_P.csv

>>> COPY /tmp/H10_2.73/GMJ_e2_F_P.csv /home/grierjones/DDCASPT2/hydrogen_comps/H10_chain/H10_2.73/GMJ_e2_F_P.csv

>>> END FOREACH

>>> EXPORT j = M

>>> IF (-FILE GMJ_e2_${i}_${j}.csv)

>>> COPY /tmp/H10_2.73/GMJ_RHS_F_M.csv /home/grierjones/DDCASPT2/hydrogen_comps/H10_chain/H10_2.73/GMJ_RHS_F_M.csv

>>> COPY /tmp/H10_2.73/GMJ_IVECW_F_M.csv /home/grierjones/DDCASPT2/hydrogen_comps/H10_chain/H10_2.73/GMJ_IVECW_F_M.csv

>>> COPY /tmp/H10_2.73/GMJ_IVECX_F_M.csv /home/grierjones/DDCASPT2/hydrogen_comps/H10_chain/H10_2.73/GMJ_IVECX_F_M.csv

>>> COPY /tmp/H10_2.73/GMJ_IVECC2_F_M.csv /home/grierjones/DDCASPT2/hydrogen_comps/H10_chain/H10_2.73/GMJ_IVECC2_F_M.csv

>>> COPY /tmp/H10_2.73/GMJ_e2_F_M.csv /home/grierjones/DDCASPT2/hydrogen_comps/H10_chain/H10_2.73/GMJ_e2_F_M.csv

>>> END FOREACH

>>> END FOREACH

>>> EXPORT i = G

>>> EXPORT j = P

>>> IF (-FILE GMJ_e2_${i}_${j}.csv)
(Skipped)

>>> END FOREACH

>>> EXPORT j = M

>>> IF (-FILE GMJ_e2_${i}_${j}.csv)
(Skipped)

>>> END FOREACH

>>> END FOREACH

>>> EXPORT i = H

>>> EXPORT j = P

>>> IF (-FILE GMJ_e2_${i}_${j}.csv)
(Skipped)

>>> END FOREACH

>>> EXPORT j = M

>>> IF (-FILE GMJ_e2_${i}_${j}.csv)
(Skipped)

>>> END FOREACH

>>> END FOREACH

>>> EXPORT i = A

>>> IF (-FILE GMJ_e2_$i.csv)
(Skipped)

>>> END FOREACH

>>> EXPORT i = C

>>> IF (-FILE GMJ_e2_$i.csv)

>>> COPY /tmp/H10_2.73/GMJ_RHS_C.csv /home/grierjones/DDCASPT2/hydrogen_comps/H10_chain/H10_2.73/GMJ_RHS_C.csv

>>> COPY /tmp/H10_2.73/GMJ_IVECW_C.csv /home/grierjones/DDCASPT2/hydrogen_comps/H10_chain/H10_2.73/GMJ_IVECW_C.csv

>>> COPY /tmp/H10_2.73/GMJ_IVECX_C.csv /home/grierjones/DDCASPT2/hydrogen_comps/H10_chain/H10_2.73/GMJ_IVECX_C.csv

>>> COPY /tmp/H10_2.73/GMJ_IVECC2_C.csv /home/grierjones/DDCASPT2/hydrogen_comps/H10_chain/H10_2.73/GMJ_IVECC2_C.csv

>>> COPY /tmp/H10_2.73/GMJ_e2_C.csv /home/grierjones/DDCASPT2/hydrogen_comps/H10_chain/H10_2.73/GMJ_e2_C.csv

>>> END FOREACH

>>> EXPORT i = D

>>> IF (-FILE GMJ_e2_$i.csv)
(Skipped)

>>> END FOREACH

.########################.
.# Non-zero return code #.
.########################.

    Timing: Wall=16.20 User=14.53 System=1.65
****************************************
*** WorkDir at /tmp/H10_2.73 cleaned ***
****************************************
