   This run of MOLCAS is using the pymolcas driver

                             OPE
                             OPE          NMOL  CASOP  ENMOLC A   SO
                 OPE        NMOLC        AS  OP EN  MO LC     AS  OP
                OPENM       OL CA        SO  PE NM  OL CA     SOP EN
                OP EN      MO   LC       AS  OP ENMOL  CASO   PENMOL
                OP  EN     MO   LC       AS  OP EN     MO     LC ASO
               OP   E  NMOL  C  AS       OP  EN MO     LC     AS  OP
               OP  E   NMO   LC AS        OPEN  MO     LCASOP EN   M
               O  PEN   MO  LCA  SO
            OPE   NMO   L   CAS    OP
        OPENMOL  CASOP     ENMOL   CASOPE
     OPENMOLCA   SOPENMOLCASOPEN   MOLCASOPE
    OPENMOLCAS   OP           EN   MOL    CAS
    OPENMOLCAS       OP  ENM        O     LCA
    OPENMOLCAS    OPEN  MOLCASO     P  E  NMO
    OPENMOLCAS     OP               E  N  MOL
    OPENMOLCA   SO           PENM   O  L  CAS    OPEN    MO    LCAS
    OPENMOLCA   SOP           ENM   O  L  CAS   OP  EN  MOLC  AS   O
    OPENMOLCA   SOPE           NM      O  LCA   S      OP  EN MO
    OPENMOLC                AS         O  PEN   M      OL  CA  SOPE
    OPENMO        LCASOPE  NMOL        C  ASO   P      ENMOLC     AS
    OPE     NMO      LCA  SO     P     E   NM   OL  CA SO  PE N   MO
          OPENMOLCA            SOPE   NMO        LCAS  O    P  ENMO
     OPENMOLCASOPENMOLCASOPENMOLCASOPENMOLCA
        OPENMOLCASOPENMOLCASOPENMOLCASOPE
            OPENMOLCASOPENMOLCASOPENM
               OPENMOLCASOPENMOLCA        version: 1d1d16313-dirty
                   OPENMOLCASO
                       OPE                tag:

 OpenMolcas is free software; you can redistribute it and/or modify it
 under the terms of the GNU Lesser General Public License version 2.1.
 OpenMolcas is distributed in the hope that it will be useful, but it
 is provided "as is" and without any express or implied warranties.
 For more details see the full text of the license in the file
 LICENSE or in <http://www.gnu.org/licenses/>.

                 Copyright (C) The OpenMolcas Authors
           For the author list and the recommended citation,
                   consult the file CONTRIBUTORS.md

           *************************************************
           * pymolcas version py2.28                       *
           *   build c4a6d18ded8cb6cad61d2372a9abd97c      *
           *   (after the EMIL interpreter by V. Veryazov) *
           *************************************************

configuration info
------------------
C Compiler ID: IntelLLVM
C flags: -std=gnu99
Fortran Compiler ID: IntelLLVM
Fortran flags: -standard-semantics -fltconsistency -fpp -i8 -heap-arrays
Definitions: _MOLCAS_;_I8_;_LINUX_
Parallel: OFF (GA=OFF)


   ------------------------------------------------------------------------------
  |
  |              Project: ozone_145.75
  |       Submitted from: /home/grierjones/DDCASPT2/ozone/ANO-RCC-MB/ozone_145.75
  |         Scratch area: /tmp/ozone_145.75
  |      Save outputs to: /home/grierjones/DDCASPT2/ozone/ANO-RCC-MB/ozone_145.75
  |               Molcas: /home/grierjones/Test/build
  |
  | Scratch area is empty
  |
  |       MOLCAS_DRIVER = /usr/local/pymolcas
  | MOLCAS_KEEP_WORKDIR = NO
  |  MOLCAS_NEW_WORKDIR = YES
  |       MOLCAS_NPROCS = 1
  |        MOLCAS_PRINT = NORMAL
  |       MOLCAS_SOURCE = /home/grierjones/Test
  |    MOLCAS_STRUCTURE = 0
  |
   ------------------------------------------------------------------------------

++ ---------   Input file   ---------

&GATEWAY
coord=ozone_145.75.xyz
Basis = ANO-RCC-MB
Group = nosymm
Expert
End of Input

&SEWARD
End of Input

&SCF

>>> COPY $WorkDir/ozone_145.75.scf.h5 $CurrDir/

&RASSCF
Title= RASSCF
FileOrb
/home/grierjones/DDCASPT2/ozone/ANO-RCC-MB/ozone_145.50/ozone_145.50.RasOrb
NACTEL
4 0 0
Inactive
10
RAS2
3
Symmetry
1
Spin
1
orblisting
all
ITERation
300 200

>>> COPY $WorkDir/ozone_145.75.rasscf.h5 $CurrDir/

>>> COPY $WorkDir/GMJ_Fock_MO.csv $CurrDir/ozone_145.75.GMJ_Fock_MO.csv

>>> COPY $WorkDir/GMJ_PT2_Fock_MO.csv $CurrDir/ozone_145.75.GMJ_PT2_Fock_MO.csv

&MOTRA
Frozen=0
LUMORB

>>> COPY $WorkDir/GMJ_one_int_indx.csv $CurrDir/ozone_145.75.GMJ_one_int_indx.csv

>>> COPY $WorkDir/GMJ_one_int.csv $CurrDir/ozone_145.75.GMJ_one_int.csv

>>> COPY $WorkDir/GMJ_two_int_indx.csv $CurrDir/ozone_145.75.GMJ_two_int_indx.csv

>>> COPY $WorkDir/GMJ_two_int.csv $CurrDir/ozone_145.75.GMJ_two_int.csv

&CASPT2
Frozen
0
MAXITER
50

>>> FOREACH i IN (B,E,F,G,H)

  >>> FOREACH j IN (P,M)

    >>> IF (-FILE GMJ_e2_${i}_${j}.csv)

      >>> COPY $WorkDir/GMJ_RHS_${i}_${j}.csv $CurrDir/GMJ_RHS_${i}_${j}.csv

      >>> COPY $WorkDir/GMJ_IVECW_${i}_${j}.csv $CurrDir/GMJ_IVECW_${i}_${j}.csv

      >>> COPY $WorkDir/GMJ_IVECX_${i}_${j}.csv $CurrDir/GMJ_IVECX_${i}_${j}.csv

      >>> COPY $WorkDir/GMJ_IVECC2_${i}_${j}.csv $CurrDir/GMJ_IVECC2_${i}_${j}.csv

      >>> COPY $WorkDir/GMJ_e2_${i}_${j}.csv $CurrDir/GMJ_e2_${i}_${j}.csv

    >>> END IF

  >>> END FOREACH

>>> END FOREACH

>>> FOREACH i IN (A,C,D)

  >>> IF (-FILE GMJ_e2_$i.csv)

    >>> COPY $WorkDir/GMJ_RHS_$i.csv $CurrDir/GMJ_RHS_$i.csv

    >>> COPY $WorkDir/GMJ_IVECW_$i.csv $CurrDir/GMJ_IVECW_$i.csv

    >>> COPY $WorkDir/GMJ_IVECX_$i.csv $CurrDir/GMJ_IVECX_$i.csv

    >>> COPY $WorkDir/GMJ_IVECC2_$i.csv $CurrDir/GMJ_IVECC2_$i.csv

    >>> COPY $WorkDir/GMJ_e2_$i.csv $CurrDir/GMJ_e2_$i.csv

  >>> END IF

>>> END FOREACH

-- ----------------------------------

--- Start Module: gateway at Sat Jan 25 14:06:31 2025 ---
 
()()()()()()()()()()()()()()()()()()()()()()()()()()()()()()()()()()()()()()()()()()()()()()()()()()

                                              &GATEWAY

                                   only a single process is used
                       available to each process: 2.0 GB of memory, 1 thread?
()()()()()()()()()()()()()()()()()()()()()()()()()()()()()()()()()()()()()()()()()()()()()()()()()()
 
 ###############################################################################
 ###############################################################################
 ###                                                                         ###
 ###                                                                         ###
 ###                                                                         ###
 ###    WARNING: EXPERT option is ON!                                        ###
 ###                                                                         ###
 ###                                                                         ###
 ###############################################################################
 ###############################################################################
 
++    Symmetry information:
      ---------------------
 
                    Character Table for C1 
 
                             E  
                    a        1  x, y, xy, Rz, z, xz, Ry, yz, Rx, I
--
 
 
++    Basis set information:
      ----------------------
 
 
      Basis set label: O.ANO-RCC...2S1P.
 
      Electronic valence basis set:
      ------------------
      Associated Effective Charge   8.000000 au
      Associated Actual Charge      8.000000 au
      Nuclear Model: Point charge
 
      Shell  nPrim  nBasis  Cartesian Spherical Contaminant
         s      14       2        X                  
         p       9       1        X                  
--
 
 
++    Molecular structure info:
      -------------------------
 
                    ************************************************ 
                    **** Cartesian Coordinates / Bohr, Angstrom **** 
                    ************************************************ 
 
     Center  Label                x              y              z                     x              y              z
        1      O1               0.711134       2.307996       0.000000              0.376316       1.221339       0.000000
        2      O2               0.000000       0.000000       0.000000              0.000000       0.000000       0.000000
        3      O3               0.711134      -2.307996       0.000000              0.376316      -1.221339       0.000000
 
                    *************************************** 
                    *    InterNuclear Distances / Bohr    * 
                    *************************************** 
 
               1 O1            2 O2            3 O3    
    1 O1       0.000000
    2 O2       2.415069        0.000000
    3 O3       4.615992        2.415069        0.000000
 
                    ******************************************* 
                    *    InterNuclear Distances / Angstrom    * 
                    ******************************************* 
 
               1 O1            2 O2            3 O3    
    1 O1       0.000000
    2 O2       1.277999        0.000000
    3 O3       2.442678        1.277999        0.000000
 
                    ************************************** 
                    *    Valence Bond Angles / Degree    * 
                    ************************************** 
                          Atom centers                 Phi
                      1 O1       2 O2       3 O3       145.75
--
 
 
            Nuclear Potential Energy             66.86539650 au
 
 ###############################################################################
 ###############################################################################
 ###                                                                         ###
 ###                                                                         ###
 ###    There were warnings during the execution                             ###
 ###    Please, check the output with care!                                  ###
 ###                                                                         ###
 ###                                                                         ###
 ###############################################################################
 ###############################################################################
--- Stop Module: gateway at Sat Jan 25 14:06:31 2025 /rc=_RC_ALL_IS_WELL_ ---
*** files: xmldump
    saved to directory /home/grierjones/DDCASPT2/ozone/ANO-RCC-MB/ozone_145.75

--- Start Module: seward at Sat Jan 25 14:06:31 2025 ---
 
()()()()()()()()()()()()()()()()()()()()()()()()()()()()()()()()()()()()()()()()()()()()()()()()()()

                                              &SEWARD

                                   only a single process is used
                       available to each process: 2.0 GB of memory, 1 thread?
()()()()()()()()()()()()()()()()()()()()()()()()()()()()()()()()()()()()()()()()()()()()()()()()()()
 
 ###############################################################################
 ###############################################################################
 ###                                                                         ###
 ###                                                                         ###
 ###                                                                         ###
 ###    WARNING: EXPERT option is ON!                                        ###
 ###                                                                         ###
 ###                                                                         ###
 ###############################################################################
 ###############################################################################
               SEWARD will generate:
                  Multipole Moment integrals up to order  2
                  Kinetic Energy integrals
                  Nuclear Attraction integrals (point charge)
                  One-Electron Hamiltonian integrals
                  Velocity integrals
                  Relativistic Douglas-Kroll-Hess integrals:
                    - Parametrization         : EXP
                    - DKH order of Hamiltonian: 2
                    - DKH order of Properties : 0
                         - multipole moment operators
                         - electric potential operators
                         - contact operators
                  Atomic mean-field integrals
                  Two-Electron Repulsion integrals
 
                   Integrals are discarded if absolute value <: 0.10E-13
                   Integral cutoff threshold is set to       <: 0.10E-15
 
            Nuclear Potential Energy             66.86539650 au
 
 
      Basis set specifications :
      Symmetry species         a  
      Basis functions           15
 
 
  Input file to MOLDEN was generated!
 
 ###############################################################################
 ###############################################################################
 ###                                                                         ###
 ###                                                                         ###
 ###    There were warnings during the execution                             ###
 ###    Please, check the output with care!                                  ###
 ###                                                                         ###
 ###                                                                         ###
 ###############################################################################
 ###############################################################################
forrtl: warning (525): IEEE_DIVIDE_BY_ZERO is signaling
forrtl: warning (526): IEEE_INVALID is signaling
forrtl: warning (528): IEEE_UNDERFLOW is signaling
--- Stop Module: seward at Sat Jan 25 14:06:32 2025 /rc=_RC_ALL_IS_WELL_ ---
*** files: ozone_145.75.GssOrb ozone_145.75.guessorb.h5 ozone_145.75.guessorb.molden xmldump
    saved to directory /home/grierjones/DDCASPT2/ozone/ANO-RCC-MB/ozone_145.75

*** symbolic link created: INPORB -> ozone_145.75.GssOrb
--- Start Module: scf at Sat Jan 25 14:06:32 2025 ---
 
()()()()()()()()()()()()()()()()()()()()()()()()()()()()()()()()()()()()()()()()()()()()()()()()()()

                                                &SCF

                                   only a single process is used
                       available to each process: 2.0 GB of memory, 1 thread?
()()()()()()()()()()()()()()()()()()()()()()()()()()()()()()()()()()()()()()()()()()()()()()()()()()
 
++    Input section:
      --------------
 
      Header of the integral files:
      
       Integrals generated by seward 4.2.0  , Sat Jan 25 14:06:31 2025
 
 
      Cartesian coordinates in Angstrom:
      -----------------------------------------------------
      No.  Label        X            Y            Z        
      -----------------------------------------------------
       1   O1         0.37631600   1.22133900   0.00000000
       2   O2         0.00000000   0.00000000   0.00000000
       3   O3         0.37631600  -1.22133900   0.00000000
      -----------------------------------------------------
      Nuclear repulsion energy =   66.86539650
--
 
++    Orbital specifications:
      -----------------------
 
      Symmetry species               1
                                     a
      Frozen orbitals                0
      Occupied orbitals             12
      Secondary orbitals             3
      Deleted orbitals               0
      Total number of orbitals      15
      Number of basis functions     15
--
 
      Molecular charge                           0.000
 
++    Optimization specifications:
      ----------------------------
 
      SCF Algorithm: Conventional
      Minimized density differences are used
      Number of density matrices in core                5
      Maximum number of NDDO SCF iterations           400
      Maximum number of HF SCF iterations             400
      Threshold for SCF energy change            0.10E-08
      Threshold for density matrix               0.10E-03
      Threshold for Fock matrix                  0.15E-03
      Threshold for linear dependence            0.10E-08
      Threshold at which DIIS is turned on       0.15E+00
      Threshold at which QNR/C2DIIS is turned on 0.75E-01
      Threshold for Norm(delta) (QNR/C2DIIS)     0.20E-04
      DIIS extrapolation of the SCF procedure
      All orbitals punched on: SCFORB
--
 
      Input vectors read from INPORB
      Orbital file label: *Guess orbitals
 
 
++ Convergence information
                                   SCF        iterations: Energy and convergence statistics
 
Iter     Tot. SCF        One-elec.       Two-elec.     Energy      Max Dij or  Max Fij      DNorm      TNorm      AccCon     Time
         Energy          Energy          Energy        Change      Delta Norm                                                in Sec.
   1  -223.916892699  -437.460504546   146.678215352   0.00E+00    0.56E+00*   0.26E+00*    0.73E+01   0.49E+02   None         0.
   2  -224.148461053  -440.378512940   149.364655391  -0.23E+00*   0.39E+00*   0.13E+00*    0.22E+01   0.50E+02   EDIIS        0.
   3  -224.198207583  -439.073678185   148.010074107  -0.50E-01*   0.14E+00*   0.75E-01*    0.51E+00   0.49E+02   EDIIS        0.
   4  -224.217686539  -439.838710190   148.755627155  -0.19E-01*   0.24E-01*   0.26E-01*    0.10E+00   0.49E+02   c2DIIS       0.
   5  -224.222794844  -439.602640989   148.514449650  -0.51E-02*   0.97E-02*   0.55E-02*    0.26E-01   0.49E+02   QNRc2DIIS    0.
   6  -224.223042731  -439.614817468   148.526378242  -0.25E-03*   0.20E-01*   0.34E-02*    0.78E-02   0.49E+02   QNRc2DIIS    0.
   7  -224.223224920  -439.608716435   148.520095020  -0.18E-03*   0.18E-02*   0.13E-02*    0.38E-02   0.49E+02   QNRc2DIIS    0.
   8  -224.223231825  -439.615217320   148.526589000  -0.69E-05*   0.67E-03*   0.32E-03*    0.10E-02   0.49E+02   QNRc2DIIS    0.
   9  -224.223232472  -439.614775782   148.526146814  -0.65E-06*   0.22E-03*   0.53E-04     0.68E-03   0.49E+02   QNRc2DIIS    0.
  10  -224.223232508  -439.614809110   148.526180107  -0.36E-07*   0.19E-04    0.92E-05     0.15E-03   0.49E+02   QNRc2DIIS    0.
  11  -224.223232508  -439.614800740   148.526171736  -0.76E-09    0.99E-05    0.40E-05     0.42E-04   0.49E+02   QNRc2DIIS    0.
 
       Convergence after 11 Macro Iterations
--
 
 *****************************************************************************************************************************
 *                                                                                                                           *
 *                                             SCF/KS-DFT Program, Final results                                             *
 *                                                                                                                           *
 *                                                                                                                           *
 *                                                                                                                           *
 *                                                       Final Results                                                       *
 *                                                                                                                           *
 *****************************************************************************************************************************
 
::    Total SCF energy                               -224.2232325085
      One-electron energy                            -439.6148007396
      Two-electron energy                             148.5261717356
      Nuclear repulsion energy                         66.8653964955
      Kinetic energy (interpolated)                   224.7117066142
      Virial theorem                                    0.9978262187
      Total spin, S(S+1)                                0.0000000000
      Total spin, S                                     0.0000000000
      Max non-diagonal density matrix element           0.0000108885
      Max non-diagonal Fock matrix element              0.0000018882
 
 
      All orbitals with orbital energies smaller than  E(LUMO)+0.5 are printed
 
++    Molecular orbitals:
      -------------------
 
      Title: SCF orbitals

      Molecular orbitals for symmetry species 1: a  
 
          Orbital            1         2         3         4         5         6         7         8         9        10    
          Energy          -21.0302  -20.8070  -20.8069   -1.7752   -1.5061   -1.1142   -0.8737   -0.8183   -0.8163   -0.6418
          Occ. No.          2.0000    2.0000    2.0000    2.0000    2.0000    2.0000    2.0000    2.0000    2.0000    2.0000
 
        1 O1     1s         0.0011   -0.7071    0.7071   -0.0167    0.0155    0.0123   -0.0105    0.0000   -0.0262    0.0056
        2 O1     2s        -0.0003   -0.0002    0.0000    0.3031   -0.5419    0.6399   -0.1831    0.0000   -0.4496    0.0828
        3 O1     2px       -0.0002    0.0003   -0.0003   -0.0347    0.0283    0.0627    0.2533    0.0000   -0.2578   -0.6382
        4 O1     2py        0.0001    0.0013   -0.0011   -0.1018    0.1058    0.1279   -0.1996    0.0000   -0.3433    0.3256
        5 O1     2pz       -0.0000    0.0000    0.0000   -0.0000    0.0000    0.0000   -0.0000    0.3666    0.0000   -0.0000
        6 O2     1s         1.0000    0.0000   -0.0019   -0.0236    0.0000   -0.0147   -0.0039    0.0000    0.0000   -0.0000
        7 O2     2s         0.0000    0.0000   -0.0010    0.6601   -0.0000   -0.6322   -0.0540    0.0000    0.0000   -0.0000
        8 O2     2px        0.0011    0.0000   -0.0001    0.0992   -0.0000    0.1394    0.7534   -0.0000    0.0000    0.0000
        9 O2     2py        0.0000    0.0006    0.0000   -0.0000   -0.3552    0.0000   -0.0000   -0.0000    0.5823   -0.1467
       10 O2     2pz        0.0000    0.0000    0.0000    0.0000   -0.0000    0.0000    0.0000    0.7098    0.0000   -0.0000
       11 O3     1s         0.0011    0.7071    0.7071   -0.0167   -0.0155    0.0123   -0.0105   -0.0000    0.0262   -0.0056
       12 O3     2s        -0.0003    0.0002    0.0000    0.3031    0.5419    0.6399   -0.1831   -0.0000    0.4496   -0.0828
       13 O3     2px       -0.0002   -0.0003   -0.0003   -0.0347   -0.0283    0.0627    0.2533   -0.0000    0.2578    0.6382
       14 O3     2py       -0.0001    0.0013    0.0011    0.1018    0.1058   -0.1279    0.1996    0.0000   -0.3433    0.3256
       15 O3     2pz       -0.0000    0.0000   -0.0000   -0.0000    0.0000   -0.0000    0.0000    0.3666    0.0000    0.0000
 
          Orbital           11        12        13        14    
          Energy           -0.5550   -0.5365   -0.0990    0.1618
          Occ. No.          2.0000    2.0000    0.0000    0.0000
 
        1 O1     1s         0.0043    0.0000   -0.0000    0.0198
        2 O1     2s         0.0338    0.0000   -0.0000    0.2602
        3 O1     2px        0.6716    0.0000   -0.0000   -0.0880
        4 O1     2py       -0.0087   -0.0000   -0.0000   -0.7482
        5 O1     2pz        0.0000   -0.7178    0.6301    0.0000
        6 O2     1s         0.0173    0.0000   -0.0000   -0.0824
        7 O2     2s         0.2027    0.0000   -0.0000   -0.8368
        8 O2     2px       -0.6033   -0.0000    0.0000   -0.4171
        9 O2     2py       -0.0000   -0.0000    0.0000   -0.0000
       10 O2     2pz       -0.0000    0.0000   -0.7685    0.0000
       11 O3     1s         0.0043    0.0000   -0.0000    0.0198
       12 O3     2s         0.0338    0.0000   -0.0000    0.2602
       13 O3     2px        0.6716    0.0000   -0.0000   -0.0880
       14 O3     2py        0.0087   -0.0000   -0.0000    0.7482
       15 O3     2pz       -0.0000    0.7178    0.6301   -0.0000
--
 
 
++    Molecular charges:
      ------------------
 
      Mulliken charges per centre and basis function type
      ---------------------------------------------------
 
                O1      O2      O3    
      1s       2.0001  2.0001  2.0001
      2s       1.9178  1.7158  1.9178
      2px      1.9249  1.8312  1.9249
      2pz      1.3865  1.2271  1.3865
      2py      0.8221  1.1231  0.8221
      Total    8.0514  7.8971  8.0514
 
      N-E     -0.0514  0.1029 -0.0514
 
      Total electronic charge=   24.000000
 
      Total            charge=   -0.000000
--
 
 
  Input file to MOLDEN was generated!
 
 
++    Static properties:
      ------------------
 
 
      LoProp Charges per center
 

                   O1       O2       O3    
      Nuclear      8.0000   8.0000   8.0000
      Electronic  -8.0988  -7.8025  -8.0988
 
      Total       -0.0988   0.1975  -0.0988
--
 
 
++    Natural Bond Order analysis
      ---------------------------
      Based on LoProp computed density
      -------------------------------------------------------------------------------------
      Atom A       Atom B       Bond Order | Atom A       Atom B       Bond Order
        O1           O2             2.000  |   O2           O3             2.000
      -------------------------------------------------------------------------------------
      NBO located     12.000 core electrons.
      NBO located      3.954 lone pair electrons.
      NBO located      8.000 electrons involved in    2 bonds.
      The remaining    0.046 electrons are to be considered as diffuse
--
 
 
++    Molecular properties:
      ---------------------
 
      Charge (e):
                      =   -0.0000
      Dipole Moment (Debye):
      Origin of the operator (Ang)=    0.0000    0.0000    0.0000
                   X=  8.7298E-02               Y= -1.2586E-11               Z= -2.8088E-14           Total=  8.7298E-02
      Quadrupole Moment (Debye*Ang):
      Origin of the operator (Ang)=    0.2509    0.0000    0.0000
                  XX= -1.7527E+01              XY= -4.4370E-12              XZ= -4.7994E-13              YY= -1.8109E+01
                  YZ= -3.1764E-13              ZZ= -1.5846E+01
      In traceless form (Debye*Ang)
                  XX= -5.5015E-01              XY= -6.6555E-12              XZ= -7.1991E-13              YY= -1.4225E+00
                  YZ= -4.7647E-13              ZZ=  1.9727E+00
--
 
 
  Input file to MOLDEN was generated!
 
 ###############################################################################
 ###############################################################################
 ###                                                                         ###
 ###                                                                         ###
 ###    RunFile label nBas                                                   ###
 ###    was used       78 times                                              ###
 ###                                                                         ###
 ###                                                                         ###
 ###############################################################################
 ###############################################################################
forrtl: warning (528): IEEE_UNDERFLOW is signaling
--- Stop Module: scf at Sat Jan 25 14:06:32 2025 /rc=_RC_ALL_IS_WELL_ ---
*** files: ozone_145.75.LprOrb ozone_145.75.LoProp.molden ozone_145.75.scf.molden ozone_145.75.ScfOrb ozone_145.75.scf.h5 xmldump
    saved to directory /home/grierjones/DDCASPT2/ozone/ANO-RCC-MB/ozone_145.75

>>> COPY /tmp/ozone_145.75/ozone_145.75.scf.h5 /home/grierjones/DDCASPT2/ozone/ANO-RCC-MB/ozone_145.75/

*** symbolic link created: INPORB -> ozone_145.75.ScfOrb
--- Start Module: rasscf at Sat Jan 25 14:06:32 2025 ---
 
()()()()()()()()()()()()()()()()()()()()()()()()()()()()()()()()()()()()()()()()()()()()()()()()()()

                                              &RASSCF

                                   only a single process is used
                       available to each process: 2.0 GB of memory, 1 thread?
()()()()()()()()()()()()()()()()()()()()()()()()()()()()()()()()()()()()()()()()()()()()()()()()()()
 
 
 *************** WARNING ****************
 ###############################################################################
 ###############################################################################
 ###                                                                         ###
 ###                                                                         ###
 ###    Too many macro-iterations.                                           ###
 ###                                                                         ###
 ###                                                                         ###
 ###############################################################################
 ###############################################################################
 Too many macro-iterations requested.
 Reset to maximum, new MAXIT=     200
 ****************************************
 
 *************** WARNING ****************
 ###############################################################################
 ###############################################################################
 ###                                                                         ###
 ###                                                                         ###
 ###    Too many SX-iterations.                                              ###
 ###                                                                         ###
 ###                                                                         ###
 ###############################################################################
 ###############################################################################
 Too many SX-iterations requested.
 Reset to maximum, new ITMAX=     100
 ****************************************
 
      Header of the ONEINT file:
      --------------------------
      
      Integrals generated by seward 4.2.0  , Sat Jan 25 14:06:31 2025
 
 
      OrdInt status: non-squared
 
 
      Cartesian coordinates in Angstrom:
      -----------------------------------------------------
      No.  Label        X            Y            Z        
      -----------------------------------------------------
       1   O1         0.37631600   1.22133900   0.00000000
       2   O2         0.00000000   0.00000000   0.00000000
       3   O3         0.37631600  -1.22133900   0.00000000
      -----------------------------------------------------
      Nuclear repulsion energy =   66.86539650
 
++    Wave function specifications:
      -----------------------------
 
      Number of closed shell electrons          20
      Number of electrons in active shells       4
      Max number of holes in RAS1 space          0
      Max nr of electrons in RAS3 space          0
      Number of inactive orbitals               10
      Number of active orbitals                  3
      Number of secondary orbitals               2
      Spin quantum number                      0.0
      State symmetry                             1
--
 
++    Orbital specifications:
      -----------------------
 
      Symmetry species                           1
                                                 a
      Frozen orbitals                            0
      Inactive orbitals                         10
      Active orbitals                            3
      RAS1 orbitals                              0
      RAS2 orbitals                              3
      RAS3 orbitals                              0
      Secondary orbitals                         2
      Deleted orbitals                           0
      Number of basis functions                 15
--
 
++    CI expansion specifications:
      ----------------------------
 
      Number of CSFs                             6
      Number of determinants                     6
      Number of root(s) required                 1
      Root chosen for geometry opt.              1
      CI root used                               1
         
      highest root included in the CI            1
      max. size of the explicit Hamiltonian      6
--
 
++    Optimization specifications:
      ----------------------------
 
      RASSCF algorithm: Conventional
      Maximum number of macro iterations       200
      Maximum number of SX iterations          100
      Threshold for RASSCF energy            0.100E-07
      Threshold for max MO rotation          0.100E+00
      Threshold for max BLB element          0.100E-03
      Level shift parameter                  0.500E+00
      Make Quasi-Newton update
--
 
      The MO-coefficients are taken from the file:
      /home/grierjones/DDCASPT2/ozone/ANO-RCC-MB/ozone_145.50/ozone_145.50.RasOrb                                                     
      Title: RASSCF average (pseudo-natural) orbitals                                      
 
      Total molecular charge    0.00
 
      ************************************************************************************************************************
      *                                                                                                                      *
      *                                            Wave function control section                                             *
      *                                                                                                                      *
      ************************************************************************************************************************
 
 
                                         RASSCF iterations: Energy and convergence statistics
                                         ----------------------------------------------------
 
      Iter CI   SX   CI       RASSCF       Energy    max ROT     max BLB   max BLB  Level Ln srch  Step   QN   Walltime
          iter iter root      energy       change     param      element    value   shift minimum  type update hh:mm:ss
 Nr of preliminary CI iterations:   1
        1   1    3    1  -224.32676929    0.00E+00   0.66E-03    9  15 1  0.17E-02*  0.25   0.00    SX    NO    0:00:00
        2   1    3    1  -224.32677281   -0.35E-05* -0.35E-03    7  14 1 -0.88E-03*  0.25   0.00    SX    NO    0:00:00
        3   1    3    1  -224.32677383   -0.10E-05*  0.24E-03    7  14 1 -0.61E-03*  0.25   0.00    SX    NO    0:00:00
        4   1    3    1  -224.32677422   -0.38E-06*  0.13E-03    7  14 1 -0.33E-03*  0.25   0.00    SX    NO    0:00:00
        5   1    2    1  -224.32677434   -0.12E-06* -0.26E-03    7  14 1 -0.22E-03*  0.25   1.85    QN   YES    0:00:00
        6   1    2    1  -224.32677442   -0.76E-07*  0.58E-04    7  14 1  0.86E-04   0.25   0.82    QN   YES    0:00:00
        7   1    2    1  -224.32677442   -0.12E-08  -0.17E-04    8  15 1 -0.66E-04   0.25   0.49    QN   YES    0:00:00
      Convergence after  7 iterations
 
  Dmat in MO in SXCTL bf call to SXHAM                                                                                    
  mat. size =     3x    3
 
        1.9885710187245713
        0.0000000000002247      1.6138691893388950
        0.0010313953697944      0.0000000000003052      0.3975597919365328
        8   1    2    1  -224.32677442   -0.16E-08  -0.17E-04   10  14 1 -0.14E-04   0.25   0.49    QN   YES    0:00:00
 
      ************************************************************************************************************************
                                                      Wave function printout:
                       occupation of active orbitals, and spin coupling of open shells (u,d: Spin up or down)
      ************************************************************************************************************************
 
      Note: transformation to natural orbitals
      has been made, which may change the order of the CSFs.
 
      printout of CI-coefficients larger than  0.05 for root  1
      energy=    -224.326774
      conf/sym  111     Coeff  Weight
             1  220  -0.89511 0.80122
             3  202   0.43939 0.19307
             6  022   0.07559 0.00571
 
      Natural orbitals and occupation numbers for root  1
      sym 1:   1.988572   1.613869   0.397559
 
      ************************************************************************************************************************
      *                                                                                                                      *
      *                                                    Final results                                                     *
      *                                                                                                                      *
      ************************************************************************************************************************
 
 
++    Wave function specifications:
      -----------------------------
 
      Number of closed shell electrons          20
      Number of electrons in active shells       4
      Max number of holes in RAS1 space          0
      Max nr of electrons in RAS3 space          0
      Number of inactive orbitals               10
      Number of active orbitals                  3
      Number of secondary orbitals               2
      Spin quantum number                      0.0
      State symmetry                             1
--
 
++    Orbital specifications:
      -----------------------
 
      Symmetry species                           1
                                                 a
      Frozen orbitals                            0
      Inactive orbitals                         10
      Active orbitals                            3
      RAS1 orbitals                              0
      RAS2 orbitals                              3
      RAS3 orbitals                              0
      Secondary orbitals                         2
      Deleted orbitals                           0
      Number of basis functions                 15
--
 
++    CI expansion specifications:
      ----------------------------
 
      Number of CSFs                             6
      Number of determinants                     6
      Number of root(s) required                 1
      CI root used                               1
      highest root included in the CI            1
      Root passed to geometry opt.               1
--
 
++    Final optimization conditions:
      ------------------------------
 
      Average CI energy                            -224.32677442
      RASSCF energy for state  1                   -224.32677442
      Super-CI energy                                -0.00000000
      RASSCF energy change                           -0.00000000
      Max change in MO coefficients               0.143E-04
      Max non-diagonal density matrix element    -0.169E-04
      Maximum BLB matrix element                 -0.144E-04
      (orbital pair  10,  14 in symmetry   1)
      Norm of electronic gradient            0.216E-04
--
 
 
      Final state energy(ies):
      ------------------------
 
::    RASSCF root number  1 Total energy:   -224.32677442
 
++    Molecular orbitals:
      -------------------
 
      Pseudonatural active orbitals and approximate occupation numbers
 
 
 
 
      Molecular orbitals for symmetry species 1: a  
 
 
      Orbital                1         2         3         4         5         6         7         8         9        10
      Energy          -20.8938  -20.8418  -20.8417   -1.7400   -1.4966   -1.1060   -0.8348   -0.8094   -0.6549   -0.5413
      Occ. No.          2.0000    2.0000    2.0000    2.0000    2.0000    2.0000    2.0000    2.0000    2.0000    2.0000
 
    1 O1     1s         0.0044   -0.7071    0.7071   -0.0157    0.0134    0.0133   -0.0084   -0.0236    0.0057    0.0039
    2 O1     2s        -0.0004   -0.0002   -0.0000    0.3367   -0.5682    0.6290   -0.1348   -0.3982    0.0870    0.0212
    3 O1     2px       -0.0002    0.0003   -0.0003   -0.0349    0.0260    0.0703    0.3375   -0.2933   -0.6260    0.6356
    4 O1     2py        0.0002    0.0012   -0.0011   -0.1093    0.1041    0.1613   -0.2174   -0.3732    0.3457    0.0518
    5 O1     2pz       -0.0000   -0.0000   -0.0000   -0.0000    0.0000   -0.0000    0.0000   -0.0000   -0.0000    0.0000
    6 O2     1s         1.0000    0.0000   -0.0065   -0.0261    0.0000   -0.0107   -0.0053    0.0000   -0.0000    0.0226
    7 O2     2s         0.0005    0.0000   -0.0010    0.6144   -0.0000   -0.6314   -0.0928    0.0000   -0.0000    0.2788
    8 O2     2px        0.0014    0.0000   -0.0001    0.1007   -0.0000    0.0851    0.6605    0.0000    0.0000   -0.6732
    9 O2     2py        0.0000    0.0006    0.0000   -0.0000   -0.3112    0.0000   -0.0000    0.5276   -0.1508   -0.0000
   10 O2     2pz       -0.0000    0.0000    0.0000   -0.0000    0.0000    0.0000    0.0000    0.0000   -0.0000   -0.0000
   11 O3     1s         0.0044    0.7071    0.7071   -0.0157   -0.0134    0.0133   -0.0084    0.0236   -0.0057    0.0039
   12 O3     2s        -0.0004    0.0002   -0.0000    0.3367    0.5682    0.6290   -0.1348    0.3982   -0.0870    0.0212
   13 O3     2px       -0.0002   -0.0003   -0.0003   -0.0349   -0.0260    0.0703    0.3375    0.2933    0.6260    0.6356
   14 O3     2py       -0.0002    0.0012    0.0011    0.1093    0.1041   -0.1613    0.2174   -0.3732    0.3457   -0.0518
   15 O3     2pz        0.0000    0.0000    0.0000   -0.0000    0.0000    0.0000    0.0000    0.0000   -0.0000    0.0000
 
 
      Orbital               11        12        13        14        15
      Energy            0.0000    0.0000    0.0000    0.1603    0.5134
      Occ. No.          1.9886    1.6139    0.3976    0.0000    0.0000
 
    1 O1     1s         0.0000   -0.0000   -0.0000   -0.0210   -0.0534
    2 O1     2s         0.0000   -0.0000   -0.0000   -0.2759   -0.4925
    3 O1     2px       -0.0000    0.0000   -0.0000    0.0632    0.2539
    4 O1     2py        0.0000    0.0000    0.0000    0.7339    0.6186
    5 O1     2pz        0.2583   -0.7178    0.6817    0.0000    0.0000
    6 O2     1s         0.0000    0.0000   -0.0000    0.0807   -0.0000
    7 O2     2s         0.0000    0.0000   -0.0000    0.8468   -0.0000
    8 O2     2px       -0.0000   -0.0000    0.0000    0.4774   -0.0000
    9 O2     2py       -0.0000    0.0000    0.0000    0.0000    1.1073
   10 O2     2pz        0.8262   -0.0000   -0.6417    0.0000    0.0000
   11 O3     1s        -0.0000   -0.0000    0.0000   -0.0210    0.0534
   12 O3     2s        -0.0000    0.0000    0.0000   -0.2759    0.4925
   13 O3     2px       -0.0000   -0.0000   -0.0000    0.0632   -0.2539
   14 O3     2py        0.0000    0.0000   -0.0000   -0.7339    0.6186
   15 O3     2pz        0.2583    0.7178    0.6817   -0.0000   -0.0000
--
 
      Von Neumann Entropy (Root  1) =  0.72125
 

      Mulliken population analysis for root number:  1
      -----------------------------------------------
 
 
++    Molecular charges:
      ------------------
 
      Mulliken charges per centre and basis function type
      ---------------------------------------------------
 
                O1      O2      O3    
      1s       2.0001  2.0001  2.0001
      2s       1.9096  1.6849  1.9096
      2px      1.9391  1.7570  1.9391
      2pz      1.1866  1.6268  1.1866
      2py      0.9345  0.9914  0.9345
      Total    7.9699  8.0602  7.9699
 
      N-E      0.0301 -0.0602  0.0301
 
      Total electronic charge=   24.000000
 
      Total            charge=   -0.000000
--
 
 

      Expectation values of various properties for root number:  1
      -----------------------------------------------------------
 
 
++    Molecular properties:
      ---------------------
 
      Charge (e):
                      =   -0.0000
      Dipole Moment (Debye):
      Origin of the operator (Ang)=    0.0000    0.0000    0.0000
                   X=  4.9057E-01               Y= -1.1788E-11               Z=  9.1896E-14           Total=  4.9057E-01
      Quadrupole Moment (Debye*Ang):
      Origin of the operator (Ang)=    0.2509    0.0000    0.0000
                  XX= -1.7549E+01              XY= -3.9816E-12              XZ= -4.2995E-13              YY= -1.7283E+01
                  YZ= -1.0843E-13              ZZ= -1.5605E+01
      In traceless form (Debye*Ang)
                  XX= -1.1044E+00              XY= -5.9723E-12              XZ= -6.4492E-13              YY= -7.0601E-01
                  YZ= -1.6264E-13              ZZ=  1.8104E+00
--
 

      LoProp population analysis for root number:  1
      -----------------------------------------------
 
 
++    LoProp analysis:
      ----------------
 
 
 
  Input file to MOLDEN was generated!
 
 
++    Static properties:
      ------------------
 
 
      LoProp Charges per center
 

                   O1       O2       O3    
      Nuclear      8.0000   8.0000   8.0000
      Electronic  -8.0033  -7.9933  -8.0033
 
      Total       -0.0033   0.0067  -0.0033
--
 
 
      Natural Bond Order analysis for root number:  1
 
++    Natural Bond Order analysis
      ---------------------------
      Based on LoProp computed density
      -------------------------------------------------------------------------------------
      Atom A       Atom B       Bond Order | Atom A       Atom B       Bond Order
        O1           O2             1.964  |   O2           O3             1.964
      -------------------------------------------------------------------------------------
      NBO located     12.000 core electrons.
      NBO located      3.950 lone pair electrons.
      NBO located      7.854 electrons involved in    2 bonds.
      The remaining    0.196 electrons are to be considered as diffuse
--
 
--
 
 
  Input file to MOLDEN was generated!
 
      Average orbitals are written to the RASORB file
      Natural orbitals for root   1 are written to the RASORB.1 file
      Spin density orbitals for root   1 are written to the SPDORB.1 file
 
forrtl: warning (525): IEEE_DIVIDE_BY_ZERO is signaling
forrtl: warning (526): IEEE_INVALID is signaling
forrtl: warning (528): IEEE_UNDERFLOW is signaling
--- Stop Module: rasscf at Sat Jan 25 14:06:32 2025 /rc=_RC_ALL_IS_WELL_ ---
*** files: ozone_145.75.LprOrb ozone_145.75.rasscf.molden ozone_145.75.LoProp.molden ozone_145.75.RasOrb ozone_145.75.RasOrb.1 ozone_145.75.rasscf.h5 ozone_145.75.SpdOrb.1 xmldump
    saved to directory /home/grierjones/DDCASPT2/ozone/ANO-RCC-MB/ozone_145.75

>>> COPY /tmp/ozone_145.75/ozone_145.75.rasscf.h5 /home/grierjones/DDCASPT2/ozone/ANO-RCC-MB/ozone_145.75/

>>> COPY /tmp/ozone_145.75/GMJ_Fock_MO.csv /home/grierjones/DDCASPT2/ozone/ANO-RCC-MB/ozone_145.75/ozone_145.75.GMJ_Fock_MO.csv

>>> COPY /tmp/ozone_145.75/GMJ_PT2_Fock_MO.csv /home/grierjones/DDCASPT2/ozone/ANO-RCC-MB/ozone_145.75/ozone_145.75.GMJ_PT2_Fock_MO.csv

*** symbolic link created: INPORB -> ozone_145.75.RasOrb
--- Start Module: motra at Sat Jan 25 14:06:32 2025 ---
 
()()()()()()()()()()()()()()()()()()()()()()()()()()()()()()()()()()()()()()()()()()()()()()()()()()

                                               &MOTRA

                                   only a single process is used
                       available to each process: 2.0 GB of memory, 1 thread?
()()()()()()()()()()()()()()()()()()()()()()()()()()()()()()()()()()()()()()()()()()()()()()()()()()
 
 
      *** WARNING: Default frozen orbitals is overwritten by user input.
      *** Default values:   3
 
      Header of the integral files:
      
       Integrals generated by seward 4.2.0  , Sat Jan 25 14:06:31 2025
 
 
      Header of MO coefficients source file:
      * RASSCF average (pseudo-natural) orbitals                                      
 
 
      Cartesian coordinates in Angstrom:
      -----------------------------------------------------
      No.  Label        X            Y            Z        
      -----------------------------------------------------
       1   O1         0.37631600   1.22133900   0.00000000
       2   O2         0.00000000   0.00000000   0.00000000
       3   O3         0.37631600  -1.22133900   0.00000000
      -----------------------------------------------------
      Nuclear repulsion energy =   66.86539650
 
      Orbital specifications:
      -----------------------
 
      Symmetry species:              1
      Number of basis functions:    15
      Frozen orbitals:               0
      Deleted orbitals:              0
      Number of orbitals used:      15

       SYMMETRY  BASIS FUNCTIONS       ORBITALS      INTEGRALS   CPU(SEC)  I/O(SEC)
 
        1 1 1 1   15  15  15  15    15  15  15  15        7260       0.00      0.00

       TOTAL CPU TIME(SEC)    0.00TOTAL I/O TIME(SEC)    0.01
 
--- Stop Module: motra at Sat Jan 25 14:06:32 2025 /rc=_RC_ALL_IS_WELL_ ---
*** files: xmldump
    saved to directory /home/grierjones/DDCASPT2/ozone/ANO-RCC-MB/ozone_145.75

>>> COPY /tmp/ozone_145.75/GMJ_one_int_indx.csv /home/grierjones/DDCASPT2/ozone/ANO-RCC-MB/ozone_145.75/ozone_145.75.GMJ_one_int_indx.csv

>>> COPY /tmp/ozone_145.75/GMJ_one_int.csv /home/grierjones/DDCASPT2/ozone/ANO-RCC-MB/ozone_145.75/ozone_145.75.GMJ_one_int.csv

>>> COPY /tmp/ozone_145.75/GMJ_two_int_indx.csv /home/grierjones/DDCASPT2/ozone/ANO-RCC-MB/ozone_145.75/ozone_145.75.GMJ_two_int_indx.csv

>>> COPY /tmp/ozone_145.75/GMJ_two_int.csv /home/grierjones/DDCASPT2/ozone/ANO-RCC-MB/ozone_145.75/ozone_145.75.GMJ_two_int.csv

*** symbolic link created: INPORB -> ozone_145.75.RasOrb
--- Start Module: caspt2 at Sat Jan 25 14:06:32 2025 ---
 
()()()()()()()()()()()()()()()()()()()()()()()()()()()()()()()()()()()()()()()()()()()()()()()()()()

                                              &CASPT2

                                   only a single process is used
                       available to each process: 2.0 GB of memory, 1 thread?
()()()()()()()()()()()()()()()()()()()()()()()()()()()()()()()()()()()()()()()()()()()()()()()()()()
 
 Cholesky algorithm in CASPT2 =    1
 
 ###############################################################################
 ###############################################################################
 ###                                                                         ###
 ###                                                                         ###
 ###    User changed nr of frozen orbitals.                                  ###
 ###                                                                         ###
 ###                                                                         ###
 ###############################################################################
 ###############################################################################
 
++    Wave function specifications:
      -----------------------------
 
      Number of closed shell electrons          20
      Number of electrons in active shells       4
      Max number of holes in RAS1 space          0
      Max number of electrons in RAS3 space      0
      Number of inactive orbitals               10
      Number of active orbitals                  3
      Number of secondary orbitals               2
      Spin quantum number                      0.0
      State symmetry                             1
      Number of CSFs                             6
      Number of root(s) available                1
      Root passed to geometry opt.               1
      A file JOBMIX will be created.
      This is a CASSCF or RASSCF reference function
--
 
++    Orbital specifications:
      -----------------------
 
      Symmetry species                           1
                                                 a
      Frozen orbitals                            0
      Inactive orbitals                         10
      Active orbitals                            3
      Secondary orbitals                         2
      Deleted orbitals                           0
      Number of basis functions                 15
--
 
      Type of Fock operator: STANDARD
      Type of 0-order Hamiltonian: STANDARD WITH DEFAULT IPEA
        "IP-EA" denominator shift =      0.25
      The input orbitals and the CI vector will be transformed.
 
--------------------------------------------------------------------------------
 Estimated memory requirements:
  POLY3 :                   250202
  RHS:                      251368
  SIGMA :                   251440
  PRPCTL:                        0
 Available workspace:    230399382
 
++ CASPT2 computation for group   1
 
********************************************************************************
 Multi-State initialization phase begins for group   1
--------------------------------------------------------------------------------
********************************************************************************
 Compute H0 matrices for state    1
--------------------------------------------------------------------------------
--------------------------------------------------------------------------------
 H0 matrices have been computed.
 
********************************************************************************
  CASPT2 EQUATION SOLUTION
--------------------------------------------------------------------------------
 
  Total nr of CASPT2 parameters:
   Before reduction:        2100
   After  reduction:        1232
 
 The contributions to the second order correlation energy in atomic units.
-----------------------------------------------------------------------------------------------------------------------------
  IT.      VJTU        VJTI        ATVX        AIVX        VJAI        BVAT        BJAT        BJAI        TOTAL       RNORM  
-----------------------------------------------------------------------------------------------------------------------------
-------------------------------------------------------------------------------------------------------------------
 
  FINAL CASPT2 RESULT:
 
  Correlation energy /Case, /Symm, and sums:
 VJTU     -0.00000000 -0.00000000
 VJTIP    -0.00101860 -0.00101860
 VJTIM     0.00000000  0.00000000
 ATVX     -0.00000000 -0.00000000
 AIVX     -0.05137959 -0.05137959
 VJAIP    -0.00000000 -0.00000000
 VJAIM    -0.00000000 -0.00000000
 BVATP    -0.00057831 -0.00057831
 BVATM    -0.00000233 -0.00000233
 BJATP    -0.00000000 -0.00000000
 BJATM    -0.00000000 -0.00000000
 BJAIP    -0.04149666 -0.04149666
 BJAIM    -0.00685322 -0.00685322
 Summed:  -0.10132871 -0.10132871
 
      Reference energy:        -224.3267744195
      E2 (Non-variational):      -0.1013287100
      E2 (Variational):          -0.1013287100
      Total energy:            -224.4281031294
      Residual norm:              0.0000000000
      Reference weight:           0.95018
 
      Contributions to the CASPT2 correlation energy
      Active & Virtual Only:         -0.0005806440
      One Inactive Excited:          -0.0513795877
      Two Inactive Excited:          -0.0493684783
 
 
++ Denominators, etc.
----------------------------------------------------------------------------------------------------
 Report on small energy denominators, large coefficients, and large energy contributions.
CASE  SYMM ACTIVE-MIX  NON-ACTIVE INDICES          DENOMINATOR     RHS VALUE       COEFFICIENT     CONTRIBUTION
VJTU     1  Mu1.0001  In1.010                       0.29769954      0.00000000     -0.00000000     -0.00000000
AIVX     1  Mu1.0006  In1.004 Se1.014               2.62012230     -0.07390091      0.02820514     -0.00208439
AIVX     1  Mu1.0003  In1.005 Se1.014               1.99142791      0.05556536     -0.02790227     -0.00155040
AIVX     1  Mu1.0004  In1.006 Se1.014               1.82312321     -0.05395262      0.02959356     -0.00159665
AIVX     1  Mu1.0006  In1.006 Se1.014               1.98610382      0.05158676     -0.02597386     -0.00133991
AIVX     1  Mu1.0004  In1.007 Se1.014               1.55193945      0.06695557     -0.04314322     -0.00288868
AIVX     1  Mu1.0002  In1.008 Se1.014               1.21957605     -0.08724241      0.07153503     -0.00624089
AIVX     1  Mu1.0003  In1.008 Se1.014               1.30426467     -0.04859367      0.03725752     -0.00181048
AIVX     1  Mu1.0002  In1.009 Se1.014               1.06511070      0.05999990     -0.05633207     -0.00337992
AIVX     1  Mu1.0003  In1.009 Se1.014               1.14979933      0.03992569     -0.03472405     -0.00138638
AIVX     1  Mu1.0004  In1.010 Se1.014               1.25849912     -0.03900900      0.03099646     -0.00120914
AIVX     1  Mu1.0004  In1.005 Se1.015               2.56672459     -0.07060633      0.02750837     -0.00194226
AIVX     1  Mu1.0001  In1.008 Se1.015               1.25042170      0.03698554     -0.02957786     -0.00109395
AIVX     1  Mu1.0004  In1.008 Se1.015               1.87956135      0.12080536     -0.06427324     -0.00776455
AIVX     1  Mu1.0006  In1.008 Se1.015               2.04254196     -0.07373260      0.03609847     -0.00266163
AIVX     1  Mu1.0002  In1.010 Se1.015               1.30451094      0.05165497     -0.03959719     -0.00204539
BJAIP    1  Se1.014 In1.006 Se1.014 In1.006         2.53262511      0.06606944     -0.02608732     -0.00172357
BJAIP    1  Se1.014 In1.006 Se1.015 In1.008         2.58906325     -0.07543480      0.02913593     -0.00219786
BJAIP    1  Se1.014 In1.008 Se1.014 In1.008         1.93950427      0.07918432     -0.04082709     -0.00323287
BJAIP    1  Se1.015 In1.008 Se1.015 In1.008         2.64550139      0.10872969     -0.04109981     -0.00446877
BJAIP    1  Se1.014 In1.008 Se1.014 In1.009         1.78503892     -0.05831185      0.03266699     -0.00190487
BJAIP    1  Se1.014 In1.009 Se1.014 In1.009         1.63057358      0.04882550     -0.02994376     -0.00146202
BJAIP    1  Se1.014 In1.008 Se1.015 In1.010         2.02443916     -0.07208033      0.03560508     -0.00256643
BJAIM    1  Se1.014 In1.006 Se1.014 In1.008         2.58906325     -0.07793813      0.03010279     -0.00234616
BJAIM    1  Se1.014 In1.007 Se1.014 In1.008         2.31787948      0.06279343     -0.02709086     -0.00170113
--
 
   (Skipping property calculation,
    use PROP keyword to activate)
--
 
  Total CASPT2 energies:
::    CASPT2 Root  1     Total energy:   -224.42810313
 
  A NEW JOBIPH FILE NAMED 'JOBMIX' IS PREPARED.
********************************************************************************
forrtl: warning (528): IEEE_UNDERFLOW is signaling
--- Stop Module: caspt2 at Sat Jan 25 14:06:32 2025 /rc=_RC_ALL_IS_WELL_ ---
*** files: xmldump
    saved to directory /home/grierjones/DDCASPT2/ozone/ANO-RCC-MB/ozone_145.75

>>> EXPORT i = B

>>> EXPORT j = P

>>> IF (-FILE GMJ_e2_${i}_${j}.csv)

>>> COPY /tmp/ozone_145.75/GMJ_RHS_B_P.csv /home/grierjones/DDCASPT2/ozone/ANO-RCC-MB/ozone_145.75/GMJ_RHS_B_P.csv

>>> COPY /tmp/ozone_145.75/GMJ_IVECW_B_P.csv /home/grierjones/DDCASPT2/ozone/ANO-RCC-MB/ozone_145.75/GMJ_IVECW_B_P.csv

>>> COPY /tmp/ozone_145.75/GMJ_IVECX_B_P.csv /home/grierjones/DDCASPT2/ozone/ANO-RCC-MB/ozone_145.75/GMJ_IVECX_B_P.csv

>>> COPY /tmp/ozone_145.75/GMJ_IVECC2_B_P.csv /home/grierjones/DDCASPT2/ozone/ANO-RCC-MB/ozone_145.75/GMJ_IVECC2_B_P.csv

>>> COPY /tmp/ozone_145.75/GMJ_e2_B_P.csv /home/grierjones/DDCASPT2/ozone/ANO-RCC-MB/ozone_145.75/GMJ_e2_B_P.csv

>>> END FOREACH

>>> EXPORT j = M

>>> IF (-FILE GMJ_e2_${i}_${j}.csv)
(Skipped)

>>> END FOREACH

>>> END FOREACH

>>> EXPORT i = E

>>> EXPORT j = P

>>> IF (-FILE GMJ_e2_${i}_${j}.csv)

>>> COPY /tmp/ozone_145.75/GMJ_RHS_E_P.csv /home/grierjones/DDCASPT2/ozone/ANO-RCC-MB/ozone_145.75/GMJ_RHS_E_P.csv

>>> COPY /tmp/ozone_145.75/GMJ_IVECW_E_P.csv /home/grierjones/DDCASPT2/ozone/ANO-RCC-MB/ozone_145.75/GMJ_IVECW_E_P.csv

>>> COPY /tmp/ozone_145.75/GMJ_IVECX_E_P.csv /home/grierjones/DDCASPT2/ozone/ANO-RCC-MB/ozone_145.75/GMJ_IVECX_E_P.csv

>>> COPY /tmp/ozone_145.75/GMJ_IVECC2_E_P.csv /home/grierjones/DDCASPT2/ozone/ANO-RCC-MB/ozone_145.75/GMJ_IVECC2_E_P.csv

>>> COPY /tmp/ozone_145.75/GMJ_e2_E_P.csv /home/grierjones/DDCASPT2/ozone/ANO-RCC-MB/ozone_145.75/GMJ_e2_E_P.csv

>>> END FOREACH

>>> EXPORT j = M

>>> IF (-FILE GMJ_e2_${i}_${j}.csv)

>>> COPY /tmp/ozone_145.75/GMJ_RHS_E_M.csv /home/grierjones/DDCASPT2/ozone/ANO-RCC-MB/ozone_145.75/GMJ_RHS_E_M.csv

>>> COPY /tmp/ozone_145.75/GMJ_IVECW_E_M.csv /home/grierjones/DDCASPT2/ozone/ANO-RCC-MB/ozone_145.75/GMJ_IVECW_E_M.csv

>>> COPY /tmp/ozone_145.75/GMJ_IVECX_E_M.csv /home/grierjones/DDCASPT2/ozone/ANO-RCC-MB/ozone_145.75/GMJ_IVECX_E_M.csv

>>> COPY /tmp/ozone_145.75/GMJ_IVECC2_E_M.csv /home/grierjones/DDCASPT2/ozone/ANO-RCC-MB/ozone_145.75/GMJ_IVECC2_E_M.csv

>>> COPY /tmp/ozone_145.75/GMJ_e2_E_M.csv /home/grierjones/DDCASPT2/ozone/ANO-RCC-MB/ozone_145.75/GMJ_e2_E_M.csv

>>> END FOREACH

>>> END FOREACH

>>> EXPORT i = F

>>> EXPORT j = P

>>> IF (-FILE GMJ_e2_${i}_${j}.csv)

>>> COPY /tmp/ozone_145.75/GMJ_RHS_F_P.csv /home/grierjones/DDCASPT2/ozone/ANO-RCC-MB/ozone_145.75/GMJ_RHS_F_P.csv

>>> COPY /tmp/ozone_145.75/GMJ_IVECW_F_P.csv /home/grierjones/DDCASPT2/ozone/ANO-RCC-MB/ozone_145.75/GMJ_IVECW_F_P.csv

>>> COPY /tmp/ozone_145.75/GMJ_IVECX_F_P.csv /home/grierjones/DDCASPT2/ozone/ANO-RCC-MB/ozone_145.75/GMJ_IVECX_F_P.csv

>>> COPY /tmp/ozone_145.75/GMJ_IVECC2_F_P.csv /home/grierjones/DDCASPT2/ozone/ANO-RCC-MB/ozone_145.75/GMJ_IVECC2_F_P.csv

>>> COPY /tmp/ozone_145.75/GMJ_e2_F_P.csv /home/grierjones/DDCASPT2/ozone/ANO-RCC-MB/ozone_145.75/GMJ_e2_F_P.csv

>>> END FOREACH

>>> EXPORT j = M

>>> IF (-FILE GMJ_e2_${i}_${j}.csv)

>>> COPY /tmp/ozone_145.75/GMJ_RHS_F_M.csv /home/grierjones/DDCASPT2/ozone/ANO-RCC-MB/ozone_145.75/GMJ_RHS_F_M.csv

>>> COPY /tmp/ozone_145.75/GMJ_IVECW_F_M.csv /home/grierjones/DDCASPT2/ozone/ANO-RCC-MB/ozone_145.75/GMJ_IVECW_F_M.csv

>>> COPY /tmp/ozone_145.75/GMJ_IVECX_F_M.csv /home/grierjones/DDCASPT2/ozone/ANO-RCC-MB/ozone_145.75/GMJ_IVECX_F_M.csv

>>> COPY /tmp/ozone_145.75/GMJ_IVECC2_F_M.csv /home/grierjones/DDCASPT2/ozone/ANO-RCC-MB/ozone_145.75/GMJ_IVECC2_F_M.csv

>>> COPY /tmp/ozone_145.75/GMJ_e2_F_M.csv /home/grierjones/DDCASPT2/ozone/ANO-RCC-MB/ozone_145.75/GMJ_e2_F_M.csv

>>> END FOREACH

>>> END FOREACH

>>> EXPORT i = G

>>> EXPORT j = P

>>> IF (-FILE GMJ_e2_${i}_${j}.csv)

>>> COPY /tmp/ozone_145.75/GMJ_RHS_G_P.csv /home/grierjones/DDCASPT2/ozone/ANO-RCC-MB/ozone_145.75/GMJ_RHS_G_P.csv

>>> COPY /tmp/ozone_145.75/GMJ_IVECW_G_P.csv /home/grierjones/DDCASPT2/ozone/ANO-RCC-MB/ozone_145.75/GMJ_IVECW_G_P.csv

>>> COPY /tmp/ozone_145.75/GMJ_IVECX_G_P.csv /home/grierjones/DDCASPT2/ozone/ANO-RCC-MB/ozone_145.75/GMJ_IVECX_G_P.csv

>>> COPY /tmp/ozone_145.75/GMJ_IVECC2_G_P.csv /home/grierjones/DDCASPT2/ozone/ANO-RCC-MB/ozone_145.75/GMJ_IVECC2_G_P.csv

>>> COPY /tmp/ozone_145.75/GMJ_e2_G_P.csv /home/grierjones/DDCASPT2/ozone/ANO-RCC-MB/ozone_145.75/GMJ_e2_G_P.csv

>>> END FOREACH

>>> EXPORT j = M

>>> IF (-FILE GMJ_e2_${i}_${j}.csv)

>>> COPY /tmp/ozone_145.75/GMJ_RHS_G_M.csv /home/grierjones/DDCASPT2/ozone/ANO-RCC-MB/ozone_145.75/GMJ_RHS_G_M.csv

>>> COPY /tmp/ozone_145.75/GMJ_IVECW_G_M.csv /home/grierjones/DDCASPT2/ozone/ANO-RCC-MB/ozone_145.75/GMJ_IVECW_G_M.csv

>>> COPY /tmp/ozone_145.75/GMJ_IVECX_G_M.csv /home/grierjones/DDCASPT2/ozone/ANO-RCC-MB/ozone_145.75/GMJ_IVECX_G_M.csv

>>> COPY /tmp/ozone_145.75/GMJ_IVECC2_G_M.csv /home/grierjones/DDCASPT2/ozone/ANO-RCC-MB/ozone_145.75/GMJ_IVECC2_G_M.csv

>>> COPY /tmp/ozone_145.75/GMJ_e2_G_M.csv /home/grierjones/DDCASPT2/ozone/ANO-RCC-MB/ozone_145.75/GMJ_e2_G_M.csv

>>> END FOREACH

>>> END FOREACH

>>> EXPORT i = H

>>> EXPORT j = P

>>> IF (-FILE GMJ_e2_${i}_${j}.csv)

>>> COPY /tmp/ozone_145.75/GMJ_RHS_H_P.csv /home/grierjones/DDCASPT2/ozone/ANO-RCC-MB/ozone_145.75/GMJ_RHS_H_P.csv

>>> COPY /tmp/ozone_145.75/GMJ_IVECW_H_P.csv /home/grierjones/DDCASPT2/ozone/ANO-RCC-MB/ozone_145.75/GMJ_IVECW_H_P.csv

>>> COPY /tmp/ozone_145.75/GMJ_IVECX_H_P.csv /home/grierjones/DDCASPT2/ozone/ANO-RCC-MB/ozone_145.75/GMJ_IVECX_H_P.csv

>>> COPY /tmp/ozone_145.75/GMJ_IVECC2_H_P.csv /home/grierjones/DDCASPT2/ozone/ANO-RCC-MB/ozone_145.75/GMJ_IVECC2_H_P.csv

>>> COPY /tmp/ozone_145.75/GMJ_e2_H_P.csv /home/grierjones/DDCASPT2/ozone/ANO-RCC-MB/ozone_145.75/GMJ_e2_H_P.csv

>>> END FOREACH

>>> EXPORT j = M

>>> IF (-FILE GMJ_e2_${i}_${j}.csv)

>>> COPY /tmp/ozone_145.75/GMJ_RHS_H_M.csv /home/grierjones/DDCASPT2/ozone/ANO-RCC-MB/ozone_145.75/GMJ_RHS_H_M.csv

>>> COPY /tmp/ozone_145.75/GMJ_IVECW_H_M.csv /home/grierjones/DDCASPT2/ozone/ANO-RCC-MB/ozone_145.75/GMJ_IVECW_H_M.csv

>>> COPY /tmp/ozone_145.75/GMJ_IVECX_H_M.csv /home/grierjones/DDCASPT2/ozone/ANO-RCC-MB/ozone_145.75/GMJ_IVECX_H_M.csv

>>> COPY /tmp/ozone_145.75/GMJ_IVECC2_H_M.csv /home/grierjones/DDCASPT2/ozone/ANO-RCC-MB/ozone_145.75/GMJ_IVECC2_H_M.csv

>>> COPY /tmp/ozone_145.75/GMJ_e2_H_M.csv /home/grierjones/DDCASPT2/ozone/ANO-RCC-MB/ozone_145.75/GMJ_e2_H_M.csv

>>> END FOREACH

>>> END FOREACH

>>> EXPORT i = A

>>> IF (-FILE GMJ_e2_$i.csv)

>>> COPY /tmp/ozone_145.75/GMJ_RHS_A.csv /home/grierjones/DDCASPT2/ozone/ANO-RCC-MB/ozone_145.75/GMJ_RHS_A.csv

>>> COPY /tmp/ozone_145.75/GMJ_IVECW_A.csv /home/grierjones/DDCASPT2/ozone/ANO-RCC-MB/ozone_145.75/GMJ_IVECW_A.csv

>>> COPY /tmp/ozone_145.75/GMJ_IVECX_A.csv /home/grierjones/DDCASPT2/ozone/ANO-RCC-MB/ozone_145.75/GMJ_IVECX_A.csv

>>> COPY /tmp/ozone_145.75/GMJ_IVECC2_A.csv /home/grierjones/DDCASPT2/ozone/ANO-RCC-MB/ozone_145.75/GMJ_IVECC2_A.csv

>>> COPY /tmp/ozone_145.75/GMJ_e2_A.csv /home/grierjones/DDCASPT2/ozone/ANO-RCC-MB/ozone_145.75/GMJ_e2_A.csv

>>> END FOREACH

>>> EXPORT i = C

>>> IF (-FILE GMJ_e2_$i.csv)

>>> COPY /tmp/ozone_145.75/GMJ_RHS_C.csv /home/grierjones/DDCASPT2/ozone/ANO-RCC-MB/ozone_145.75/GMJ_RHS_C.csv

>>> COPY /tmp/ozone_145.75/GMJ_IVECW_C.csv /home/grierjones/DDCASPT2/ozone/ANO-RCC-MB/ozone_145.75/GMJ_IVECW_C.csv

>>> COPY /tmp/ozone_145.75/GMJ_IVECX_C.csv /home/grierjones/DDCASPT2/ozone/ANO-RCC-MB/ozone_145.75/GMJ_IVECX_C.csv

>>> COPY /tmp/ozone_145.75/GMJ_IVECC2_C.csv /home/grierjones/DDCASPT2/ozone/ANO-RCC-MB/ozone_145.75/GMJ_IVECC2_C.csv

>>> COPY /tmp/ozone_145.75/GMJ_e2_C.csv /home/grierjones/DDCASPT2/ozone/ANO-RCC-MB/ozone_145.75/GMJ_e2_C.csv

>>> END FOREACH

>>> EXPORT i = D

>>> IF (-FILE GMJ_e2_$i.csv)

>>> COPY /tmp/ozone_145.75/GMJ_RHS_D.csv /home/grierjones/DDCASPT2/ozone/ANO-RCC-MB/ozone_145.75/GMJ_RHS_D.csv

>>> COPY /tmp/ozone_145.75/GMJ_IVECW_D.csv /home/grierjones/DDCASPT2/ozone/ANO-RCC-MB/ozone_145.75/GMJ_IVECW_D.csv

>>> COPY /tmp/ozone_145.75/GMJ_IVECX_D.csv /home/grierjones/DDCASPT2/ozone/ANO-RCC-MB/ozone_145.75/GMJ_IVECX_D.csv

>>> COPY /tmp/ozone_145.75/GMJ_IVECC2_D.csv /home/grierjones/DDCASPT2/ozone/ANO-RCC-MB/ozone_145.75/GMJ_IVECC2_D.csv

>>> COPY /tmp/ozone_145.75/GMJ_e2_D.csv /home/grierjones/DDCASPT2/ozone/ANO-RCC-MB/ozone_145.75/GMJ_e2_D.csv

>>> END FOREACH

.########################.
.# Non-zero return code #.
.########################.

    Timing: Wall=1.06 User=0.80 System=0.25
********************************************
*** WorkDir at /tmp/ozone_145.75 cleaned ***
********************************************
