[Molden Format]
[N_Atoms]
                     2
[Atoms] (AU)
C1          1      6           0.00000000      0.00000000      0.00000000
F2          2      9           0.00000000      0.00000000      4.91328792
[Charge] (Mulliken)
  2.608003073692089E-002
 -2.608003073698484E-002
[GTO] (AU)
   1
   s  14
  5.055750100E+04  1.128874000E-04
  7.524785600E+03  5.295373000E-04
  1.694327600E+03  2.450038300E-03
  4.728227900E+02  1.005398470E-02
  1.517107500E+02  3.545398060E-02
  5.391874600E+01  1.044071086E-01
  2.065931100E+01  2.412894918E-01
  8.383976000E+00  3.834225483E-01
  3.577015000E+00  3.078514393E-01
  1.547118000E+00  6.872442990E-02
  6.130130000E-01  2.224445000E-04
  2.460680000E-01  1.976748900E-03
  9.908700000E-02  2.057859400E-03
  3.468000000E-02  4.182020000E-04
   s  14
  5.055750100E+04 -2.507420000E-05
  7.524785600E+03 -1.175945000E-04
  1.694327600E+03 -5.456275000E-04
  4.728227900E+02 -2.245077100E-03
  1.517107500E+02 -8.043471800E-03
  5.391874600E+01 -2.442588710E-02
  2.065931100E+01 -6.136791180E-02
  8.383976000E+00 -1.177767835E-01
  3.577015000E+00 -1.550487783E-01
  1.547118000E+00 -1.933316860E-02
  6.130130000E-01  3.996930678E-01
  2.460680000E-01  5.589420949E-01
  9.908700000E-02  1.711195023E-01
  3.468000000E-02  7.456244600E-03
   p   9
  8.333315500E+01  1.344656000E-03
  1.955761100E+01  1.023555500E-02
  6.080365000E+00  4.520067100E-02
  2.179317000E+00  1.410756198E-01
  8.651500000E-01  3.047388085E-01
  3.619440000E-01  3.995281011E-01
  1.547400000E-01  2.719163432E-01
  6.542900000E-02  5.857669330E-02
  2.290000000E-02 -1.263813000E-04
 
   2
   s  14
  1.031094600E+05  1.713099991E-04
  1.528100700E+04  7.123999962E-04
  3.441539200E+03  2.990479984E-03
  9.670948300E+02  1.164036994E-02
  3.140353400E+02  3.968642979E-02
  1.134423000E+02  1.128546094E-01
  4.464472700E+01  2.473650687E-01
  1.894287400E+01  3.672702681E-01
  8.532743000E+00  2.896286985E-01
  3.919401000E+00  7.786681959E-02
  1.568157000E+00  4.562139976E-03
  6.232900000E-01  2.468879987E-03
  2.408610000E-01  1.106309994E-03
  8.430100000E-02  1.739699991E-04
   s  14
  1.031094600E+05 -4.044999995E-05
  1.528100700E+04 -1.682299998E-04
  3.441539200E+03 -7.084299991E-04
  9.670948300E+02 -2.767999996E-03
  3.140353400E+02 -9.611379987E-03
  1.134423000E+02 -2.833957996E-02
  4.464472700E+01 -6.839343991E-02
  1.894287400E+01 -1.237379298E-01
  8.532743000E+00 -1.512859698E-01
  3.919401000E+00 -9.099909988E-03
  1.568157000E+00  3.716257695E-01
  6.232900000E-01  5.500214393E-01
  2.408610000E-01  2.092318697E-01
  8.430100000E-02  8.074639989E-03
   p   9
  2.453302900E+02  1.024860004E-03
  5.691900500E+01  8.344290032E-03
  1.760456800E+01  4.078927016E-02
  6.274995000E+00  1.351370605E-01
  2.447030000E+00  2.798830811E-01
  9.950600000E-01  3.597966414E-01
  4.039730000E-01  3.055347412E-01
  1.548100000E-01  1.354703905E-01
  5.418400000E-02  2.804449011E-02
 
[MO]
Sym=     1a  
Ene=   -26.3960
Spin= Alpha
Occup=    1.00000
   1        -0.00000237
   2        -0.00002917
   3         0.00000000
   4         0.00000000
   5        -0.00002713
   6         0.99999150
   7        -0.00416369
   8         0.00000000
   9         0.00000000
  10        -0.00002165
Sym=     1a  
Ene=   -26.4370
Spin= Beta
Occup=    1.00000
   1        -0.00000378
   2        -0.00006083
   3         0.00000000
   4         0.00000000
   5        -0.00008121
   6         0.99999741
   7        -0.00246985
   8         0.00000000
   9         0.00000000
  10        -0.00003461
Sym=     2a  
Ene=   -11.2770
Spin= Alpha
Occup=    1.00000
   1         1.00000109
   2         0.00000886
   3        -0.00000000
   4        -0.00000000
   5         0.00006295
   6        -0.00002277
   7        -0.00024811
   8         0.00000000
   9         0.00000000
  10         0.00021720
Sym=     2a  
Ene=   -11.2310
Spin= Beta
Occup=    1.00000
   1         0.99998833
   2        -0.00493494
   3        -0.00000000
   4        -0.00000000
   5         0.00006171
   6        -0.00001416
   7        -0.00014459
   8         0.00000000
   9         0.00000000
  10         0.00010636
Sym=     3a  
Ene=    -1.4971
Spin= Alpha
Occup=    1.00000
   1        -0.00037756
   2         0.00885471
   3        -0.00000000
   4         0.00000000
   5         0.00795662
   6         0.00411445
   7         0.99917778
   8        -0.00000000
   9        -0.00000000
  10         0.00284582
Sym=     3a  
Ene=    -1.6691
Spin= Beta
Occup=    1.00000
   1        -0.00035929
   2         0.00105376
   3        -0.00000000
   4         0.00000000
   5        -0.00005160
   6         0.00247504
   7         0.99996491
   8        -0.00000000
   9        -0.00000000
  10        -0.00299687
Sym=     4a  
Ene=    -0.8040
Spin= Alpha
Occup=    1.00000
   1        -0.00008480
   2         0.99830787
   3         0.00000000
   4        -0.00000000
   5        -0.00079469
   6        -0.00167795
   7        -0.03707553
   8         0.00000000
   9        -0.00000000
  10        -0.02586926
Sym=     4a  
Ene=    -0.8217
Spin= Beta
Occup=    1.00000
   1         0.00390116
   2        -0.03946727
   3        -0.00000000
   4        -0.00000000
   5        -0.00105331
   6         0.00009948
   7         0.00429214
   8         0.00000000
   9        -0.00000000
  10         0.99649542
Sym=     5a  
Ene=    -0.6876
Spin= Alpha
Occup=    1.00000
   1        -0.00000000
   2        -0.00000000
   3         0.00271666
   4         0.00122489
   5        -0.00000000
   6        -0.00000000
   7         0.00000000
   8         0.91154369
   9         0.41099721
  10        -0.00000000
Sym=     5a  
Ene=    -0.7313
Spin= Beta
Occup=    1.00000
   1        -0.00000000
   2         0.00000000
   3         0.00016802
   4         0.00007575
   5        -0.00000000
   6        -0.00000000
   7         0.00000000
   8         0.91161637
   9         0.41102997
  10        -0.00000000
Sym=     6a  
Ene=    -0.6876
Spin= Alpha
Occup=    1.00000
   1        -0.00000000
   2        -0.00000000
   3         0.00652246
   4        -0.01446605
   5        -0.00000000
   6         0.00000000
   7        -0.00000000
   8         0.41080464
   9        -0.91111659
  10        -0.00000000
Sym=     6a  
Ene=    -0.7308
Spin= Beta
Occup=    1.00000
   1         0.00000000
   2        -0.00000000
   3         0.00016087
   4        -0.00035680
   5         0.00000000
   6        -0.00000000
   7         0.00000000
   8        -0.41103632
   9         0.91163045
  10         0.00000000
Sym=     7a  
Ene=    -0.4191
Spin= Alpha
Occup=    1.00000
   1         0.00000000
   2         0.00000000
   3        -0.41112945
   4         0.91183699
   5        -0.00000000
   6         0.00000000
   7         0.00000000
   8         0.01759308
   9        -0.03901940
  10         0.00000000
Sym=     7a  
Ene=    -0.5664
Spin= Beta
Occup=    1.00000
   1         0.00540547
   2         1.00189696
   3         0.00000000
   4         0.00000000
   5         0.00528291
   6        -0.00164478
   7        -0.02990085
   8        -0.00000000
   9         0.00000000
  10         0.10687765
Sym=     8a  
Ene=    -0.4174
Spin= Alpha
Occup=    1.00000
   1        -0.00050931
   2        -0.01067149
   3        -0.00000000
   4         0.00000000
   5         0.98457972
   6        -0.00458325
   7        -0.06754755
   8         0.00000000
   9        -0.00000000
  10        -0.11719244
Sym=     8a  
Ene=     0.1573
Spin= Beta
Occup=    0.00000
   1        -0.00000000
   2        -0.00000000
   3         0.91195171
   4         0.41118117
   5        -0.00000000
   6        -0.00000000
   7         0.00000000
   8        -0.02472964
   9        -0.01115011
  10         0.00000000
Sym=     9a  
Ene=     0.0881
Spin= Alpha
Occup=    0.00000
   1         0.00433134
   2         0.09260686
   3        -0.00000000
   4        -0.00000000
   5         0.20605263
   6        -0.00110793
   7        -0.01925278
   8         0.00000000
   9        -0.00000000
  10         0.99910417
Sym=     9a  
Ene=     0.2195
Spin= Beta
Occup=    0.00000
   1        -0.00000000
   2        -0.00000000
   3        -0.41118115
   4         0.91195166
   5        -0.00000000
   6         0.00000000
   7         0.00000000
   8         0.01091357
   9        -0.02420502
  10        -0.00000000
Sym=    10a  
Ene=     0.0964
Spin= Alpha
Occup=    0.00000
   1         0.00000000
   2         0.00000000
   3         0.91194768
   4         0.41117936
   5         0.00000000
   6        -0.00000000
   7        -0.00000000
   8        -0.02727726
   9        -0.01229878
  10         0.00000000
Sym=    10a  
Ene=     0.2226
Spin= Beta
Occup=    0.00000
   1         0.00036271
   2         0.00250308
   3        -0.00000000
   4         0.00000000
   5         1.00592735
   6        -0.00461644
   7        -0.06191252
   8         0.00000000
   9        -0.00000000
  10         0.09047451
