[Molden Format]
[N_Atoms]
                     2
[Atoms] (AU)
B1          1      5           0.00000000      0.00000000      0.00000000
BE2         2      4           0.00000000      0.00000000      1.32280829
[Charge] (Mulliken)
 -0.587283651552895     
  0.587283651552883     
[GTO] (AU)
   1
   s  14
  3.336021700E+04  1.039699991E-04
  4.972095200E+03  5.254399956E-04
  1.125641700E+03  2.509059979E-03
  3.164913600E+02  1.031887991E-02
  1.020072600E+02  3.636632969E-02
  3.629587300E+01  1.064607991E-01
  1.397141000E+01  2.403999880E-01
  5.741156000E+00  3.748581168E-01
  2.494268000E+00  3.100066974E-01
  1.114202000E+00  7.922455933E-02
  4.215490000E-01 -4.947589958E-03
  1.696330000E-01 -7.737119935E-03
  6.853500000E-02 -1.501079987E-03
  2.398700000E-02 -1.333299989E-04
   s  14
  3.336021700E+04 -2.030000008E-05
  4.972095200E+03 -1.025700004E-04
  1.125641700E+03 -4.911300020E-04
  3.164913600E+02 -2.026570008E-03
  1.020072600E+02 -7.261010030E-03
  3.629587300E+01 -2.197722009E-02
  1.397141000E+01 -5.408428022E-02
  5.741156000E+00 -1.022402604E-01
  2.494268000E+00 -1.423595206E-01
  1.114202000E+00 -4.658690019E-02
  4.215490000E-01  3.799402916E-01
  1.696330000E-01  5.890463624E-01
  6.853500000E-02  1.749075107E-01
  2.398700000E-02 -1.142030005E-03
   p   9
  5.500000000E+01  1.229800005E-03
  1.336610100E+01  8.827380035E-03
  4.135394000E+00  3.843340015E-02
  1.481256000E+00  1.150031805E-01
  6.021360000E-01  2.733674011E-01
  2.556360000E-01  4.061972116E-01
  1.111510000E-01  3.014967912E-01
  4.764800000E-02  7.684809030E-02
  1.667700000E-02 -8.170000032E-06
 
   2
   s  14
  2.262859900E+04  8.443999941E-05
  3.372318100E+03  4.601499968E-04
  7.603504000E+02  2.285389984E-03
  2.117404800E+02  9.648129932E-03
  6.722346800E+01  3.494469975E-02
  2.337217700E+01  1.061099893E-01
  8.721373000E+00  2.458240383E-01
  3.468091000E+00  3.862428773E-01
  1.452144000E+00  3.105526078E-01
  6.086150000E-01  6.415933955E-02
  2.576860000E-01 -2.265049984E-03
  1.041760000E-01 -5.217499963E-04
  4.242700000E-02 -8.757499938E-04
  1.484900000E-02  1.242199991E-04
   s  14
  2.262859900E+04 -1.586999994E-05
  3.372318100E+03 -8.656999968E-05
  7.603504000E+02 -4.302199984E-04
  2.117404800E+02 -1.825079993E-03
  6.722346800E+01 -6.682749976E-03
  2.337217700E+01 -2.095119992E-02
  8.721373000E+00 -5.200308981E-02
  3.468091000E+00 -9.849176964E-02
  1.452144000E+00 -1.355800695E-01
  6.086150000E-01 -6.429875976E-02
  2.576860000E-01  3.125414989E-01
  1.041760000E-01  6.270468577E-01
  4.242700000E-02  2.110231492E-01
  1.484900000E-02 -4.104669985E-03
   p   9
  3.371018400E+01  1.069960000E-03
  8.057649500E+00  6.828550001E-03
  2.836471400E+00  2.119065000E-02
  1.099965700E+00  5.843696001E-02
  4.433964000E-01  2.020920800E-01
  1.822264000E-01  4.582953101E-01
  7.572410000E-02  3.691239601E-01
  3.168540000E-02  6.611471001E-02
  1.108990000E-02  1.405160000E-03
 
[MO]
Sym=     1a  
Ene=    -8.2200
Spin= Alpha
Occup=    1.00000
   1         0.98996662
   2         0.00408435
   3         0.00000000
   4        -0.00000000
   5         0.01416721
   6         0.05651246
   7         0.00353043
   8        -0.00000000
   9        -0.00000000
  10        -0.01486163
Sym=     1a  
Ene=    -8.2051
Spin= Beta
Occup=    1.00000
   1         0.98972378
   2         0.00020085
   3         0.00000000
   4         0.00000000
   5         0.01301945
   6         0.05743467
   7         0.00538433
   8        -0.00000000
   9        -0.00000000
  10        -0.01482528
Sym=     2a  
Ene=    -5.4406
Spin= Alpha
Occup=    1.00000
   1        -0.14713809
   2        -0.03237949
   3         0.00000000
   4         0.00000000
   5         0.01811557
   6         1.00332182
   7         0.01782816
   8        -0.00000000
   9        -0.00000000
  10        -0.03352648
Sym=     2a  
Ene=    -5.4338
Spin= Beta
Occup=    1.00000
   1        -0.14668087
   2        -0.03542613
   3         0.00000000
   4         0.00000000
   5         0.01621538
   6         1.00490267
   7         0.01882773
   8        -0.00000000
   9        -0.00000000
  10        -0.03307840
Sym=     3a  
Ene=    -0.6605
Spin= Alpha
Occup=    1.00000
   1        -0.05918463
   2         0.74054370
   3         0.00000000
   4        -0.00000000
   5         0.06790607
   6        -0.21902349
   7         0.28390492
   8        -0.00000000
   9        -0.00000000
  10        -0.11235918
Sym=     3a  
Ene=    -0.5615
Spin= Beta
Occup=    1.00000
   1        -0.04790020
   2         0.72899104
   3         0.00000000
   4         0.00000000
   5         0.01402455
   6        -0.19314108
   7         0.32674234
   8         0.00000000
   9        -0.00000000
  10        -0.03707148
Sym=     4a  
Ene=    -0.5376
Spin= Alpha
Occup=    1.00000
   1        -0.00000000
   2        -0.00000000
   3         0.26373008
   4         0.72308659
   5         0.00000000
   6        -0.00000000
   7         0.00000000
   8         0.09357345
   9         0.25655665
  10         0.00000000
Sym=     4a  
Ene=    -0.4669
Spin= Beta
Occup=    1.00000
   1         0.00000000
   2        -0.00000000
   3         0.67384289
   4        -0.24576952
   5         0.00000000
   6         0.00000000
   7        -0.00000000
   8         0.31087147
   9        -0.11338360
  10        -0.00000000
Sym=     5a  
Ene=    -0.4936
Spin= Alpha
Occup=    1.00000
   1        -0.00000000
   2        -0.00000000
   3         0.70144932
   4        -0.25583836
   5         0.00000000
   6         0.00000000
   7        -0.00000000
   8         0.28058966
   9        -0.10233897
  10        -0.00000000
Sym=     5a  
Ene=    -0.1133
Spin= Beta
Occup=    0.00000
   1         0.00000000
   2        -0.00000000
   3         0.19302704
   4         0.52923529
   5         0.00000000
   6        -0.00000000
   7         0.00000000
   8         0.16885079
   9         0.46294961
  10         0.00000000
Sym=     6a  
Ene=    -0.0506
Spin= Alpha
Occup=    0.00000
   1         0.07565730
   2        -0.25630343
   3        -0.00000000
   4        -0.00000000
   5         0.16556316
   6         0.00865676
   7         0.58677313
   8        -0.00000000
   9        -0.00000000
  10         0.69847392
Sym=     6a  
Ene=    -0.0413
Spin= Beta
Occup=    0.00000
   1         0.09206840
   2        -0.23957589
   3        -0.00000000
   4        -0.00000000
   5         0.15564170
   6         0.00680914
   7         0.52733470
   8        -0.00000000
   9        -0.00000000
  10         0.73546092
Sym=     7a  
Ene=     0.2540
Spin= Alpha
Occup=    0.00000
   1         0.32205222
   2         0.89986622
   3        -0.00000000
   4        -0.00000000
   5        -1.21422282
   6         0.20501486
   7        -0.44114840
   8         0.00000000
   9         0.00000000
  10         1.22686286
Sym=     7a  
Ene=     0.2800
Spin= Beta
Occup=    0.00000
   1         0.33862281
   2         0.93541950
   3        -0.00000000
   4         0.00000000
   5        -1.20633774
   6         0.18999721
   7        -0.52114582
   8         0.00000000
   9        -0.00000000
  10         1.24831498
Sym=     8a  
Ene=     0.3175
Spin= Alpha
Occup=    0.00000
   1        -0.00000000
   2        -0.00000000
   3        -0.49564956
   4        -1.35895589
   5         0.00000000
   6        -0.00000000
   7         0.00000000
   8         0.55359376
   9         1.51782542
  10        -0.00000000
Sym=     8a  
Ene=     0.3575
Spin= Beta
Occup=    0.00000
   1        -0.00000000
   2        -0.00000000
   3        -1.38403435
   4         0.50479638
   5         0.00000000
   6         0.00000000
   7         0.00000000
   8         1.50763863
   9        -0.54987835
  10        -0.00000000
Sym=     9a  
Ene=     0.3478
Spin= Alpha
Occup=    0.00000
   1        -0.00000000
   2        -0.00000000
   3        -1.37024967
   4         0.49976872
   5         0.00000000
   6         0.00000000
   7         0.00000000
   8         1.51356690
   9        -0.55204056
  10        -0.00000000
Sym=     9a  
Ene=     0.4014
Spin= Beta
Occup=    0.00000
   1        -0.00000000
   2        -0.00000000
   3        -0.52722159
   4        -1.44551905
   5         0.00000000
   6        -0.00000000
   7         0.00000000
   8         0.53545444
   9         1.46809161
  10        -0.00000000
Sym=    10a  
Ene=     0.7761
Spin= Alpha
Occup=    0.00000
   1        -0.95028582
   2        -3.99208055
   3         0.00000000
   4        -0.00000000
   5        -0.70908662
   6         1.40177473
   7         3.59438357
   8        -0.00000000
   9         0.00000000
  10        -1.66662084
Sym=    10a  
Ene=     0.7984
Spin= Beta
Occup=    0.00000
   1        -0.94401604
   2        -3.98704636
   3         0.00000000
   4        -0.00000000
   5        -0.72772794
   6         1.40652805
   7         3.58923687
   8        -0.00000000
   9         0.00000000
  10        -1.63791681
