[Molden Format]
[N_Atoms]
                     2
[Atoms] (AU)
F1          1      9           0.00000000      0.00000000      0.00000000
O2          2      8           0.00000000      0.00000000      4.72431531
[Charge] (Mulliken)
 -1.829308125444129E-003
  1.829308125396167E-003
[GTO] (AU)
   1
   s  14
  1.031094600E+05  1.713099991E-04
  1.528100700E+04  7.123999962E-04
  3.441539200E+03  2.990479984E-03
  9.670948300E+02  1.164036994E-02
  3.140353400E+02  3.968642979E-02
  1.134423000E+02  1.128546094E-01
  4.464472700E+01  2.473650687E-01
  1.894287400E+01  3.672702681E-01
  8.532743000E+00  2.896286985E-01
  3.919401000E+00  7.786681959E-02
  1.568157000E+00  4.562139976E-03
  6.232900000E-01  2.468879987E-03
  2.408610000E-01  1.106309994E-03
  8.430100000E-02  1.739699991E-04
   s  14
  1.031094600E+05 -4.044999995E-05
  1.528100700E+04 -1.682299998E-04
  3.441539200E+03 -7.084299991E-04
  9.670948300E+02 -2.767999996E-03
  3.140353400E+02 -9.611379987E-03
  1.134423000E+02 -2.833957996E-02
  4.464472700E+01 -6.839343991E-02
  1.894287400E+01 -1.237379298E-01
  8.532743000E+00 -1.512859698E-01
  3.919401000E+00 -9.099909988E-03
  1.568157000E+00  3.716257695E-01
  6.232900000E-01  5.500214393E-01
  2.408610000E-01  2.092318697E-01
  8.430100000E-02  8.074639989E-03
   p   9
  2.453302900E+02  1.024860004E-03
  5.691900500E+01  8.344290032E-03
  1.760456800E+01  4.078927016E-02
  6.274995000E+00  1.351370605E-01
  2.447030000E+00  2.798830811E-01
  9.950600000E-01  3.597966414E-01
  4.039730000E-01  3.055347412E-01
  1.548100000E-01  1.354703905E-01
  5.418400000E-02  2.804449011E-02
 
   2
   s  14
  1.053749500E+05  1.238600013E-04
  1.567924000E+04  5.120100053E-04
  3.534544700E+03  2.152910022E-03
  9.873651600E+02  8.528440089E-03
  3.159787500E+02  3.018049031E-02
  1.116542800E+02  9.099702095E-02
  4.269945100E+01  2.177936423E-01
  1.739559600E+01  3.686245738E-01
  7.438309000E+00  3.366707335E-01
  3.222862000E+00  9.657630101E-02
  1.253877000E+00  2.144520022E-03
  4.951550000E-01  1.194350012E-03
  1.916650000E-01  5.390200056E-04
  6.708300000E-02  2.103400022E-04
   s  14
  1.053749500E+05 -2.815000008E-05
  1.567924000E+04 -1.163000003E-04
  3.534544700E+03 -4.909200013E-04
  9.873651600E+02 -1.946160005E-03
  3.159787500E+02 -7.005300019E-03
  1.116542800E+02 -2.167814006E-02
  4.269945100E+01 -5.641213015E-02
  1.739559600E+01 -1.127053003E-01
  7.438309000E+00 -1.589119704E-01
  3.222862000E+00 -3.355083009E-02
  1.253877000E+00  3.531902810E-01
  4.951550000E-01  5.534199315E-01
  1.916650000E-01  2.301839106E-01
  6.708300000E-02  1.127267003E-02
   p   9
  2.000000000E+02  9.173000030E-04
  4.653336700E+01  7.377140024E-03
  1.462180900E+01  3.483515011E-02
  5.313064000E+00  1.144397004E-01
  2.102525000E+00  2.554966408E-01
  8.502230000E-01  3.722557412E-01
  3.375970000E-01  3.323314911E-01
  1.288920000E-01  1.400847905E-01
  4.511200000E-02  2.395784008E-02
 
[MO]
Sym=     1a  
Ene=   -26.4250
Spin= Alpha
Occup=    1.00000
   1         0.99999127
   2        -0.00420292
   3         0.00000000
   4         0.00000000
   5         0.00000892
   6        -0.00000209
   7        -0.00002561
   8        -0.00000000
   9        -0.00000000
  10         0.00002727
Sym=     1a  
Ene=   -26.4670
Spin= Beta
Occup=    1.00000
   1         0.99999714
   2        -0.00248996
   3         0.00000000
   4         0.00000000
   5         0.00001094
   6        -0.00000259
   7        -0.00004164
   8         0.00000000
   9        -0.00000000
  10         0.00006129
Sym=     2a  
Ene=   -20.7650
Spin= Alpha
Occup=    1.00000
   1        -0.00000467
   2        -0.00006908
   3         0.00000000
   4         0.00000000
   5        -0.00010189
   6         0.99999910
   7         0.00158344
   8        -0.00000000
   9         0.00000000
  10        -0.00001327
Sym=     2a  
Ene=   -20.6950
Spin= Beta
Occup=    1.00000
   1        -0.00000243
   2        -0.00002485
   3         0.00000000
   4         0.00000000
   5        -0.00001378
   6         0.99999776
   7        -0.00214126
   8        -0.00000000
   9         0.00000000
  10        -0.00000909
Sym=     3a  
Ene=    -1.5164
Spin= Alpha
Occup=    1.00000
   1         0.00412389
   2         0.99624681
   3         0.00000000
   4         0.00000000
   5         0.00197118
   6        -0.00041371
   7         0.06723514
   8        -0.00000000
   9        -0.00000000
  10        -0.00821213
Sym=     3a  
Ene=    -1.6915
Spin= Beta
Occup=    1.00000
   1         0.00248744
   2         0.99985578
   3         0.00000000
   4        -0.00000000
   5         0.00227357
   6        -0.00028392
   7         0.00548267
   8        -0.00000000
   9        -0.00000000
  10        -0.00077686
Sym=     4a  
Ene=    -1.4270
Spin= Alpha
Occup=    1.00000
   1        -0.00091094
   2        -0.08293130
   3        -0.00000000
   4         0.00000000
   5         0.00147855
   6        -0.00155351
   7         0.99777462
   8         0.00000000
   9        -0.00000000
  10        -0.00206906
Sym=     4a  
Ene=    -1.1177
Spin= Beta
Occup=    1.00000
   1        -0.00063368
   2        -0.02137665
   3        -0.00000000
   4         0.00000000
   5         0.04120045
   6         0.00201456
   7         0.99720995
   8         0.00000000
   9        -0.00000000
  10        -0.00427859
Sym=     5a  
Ene=    -0.7164
Spin= Alpha
Occup=    1.00000
   1        -0.00000000
   2        -0.00000000
   3         0.41929385
   4         0.23876126
   5        -0.00000000
   6         0.00000000
   7         0.00000000
   8         0.75197252
   9         0.42820067
  10        -0.00000000
Sym=     5a  
Ene=    -0.8424
Spin= Beta
Occup=    1.00000
   1         0.00001691
   2        -0.00107384
   3         0.00000000
   4         0.00000000
   5         0.99975787
   6        -0.00329817
   7        -0.09067871
   8        -0.00000000
   9         0.00000000
  10        -0.00800677
Sym=     6a  
Ene=    -0.7150
Spin= Alpha
Occup=    1.00000
   1         0.00358906
   2         0.05626208
   3         0.00000000
   4        -0.00000000
   5        -0.02569861
   6         0.00006282
   7         0.00328269
   8         0.00000000
   9        -0.00000000
  10         0.99899523
Sym=     6a  
Ene=    -0.7521
Spin= Beta
Occup=    1.00000
   1        -0.00000000
   2        -0.00000000
   3         0.86896486
   4         0.49482039
   5        -0.00000000
   6        -0.00000000
   7         0.00000000
   8         0.00101696
   9         0.00057909
  10        -0.00000000
Sym=     7a  
Ene=    -0.7077
Spin= Alpha
Occup=    1.00000
   1         0.00000000
   2         0.00000000
   3        -0.49318147
   4         0.86608673
   5         0.00000000
   6        -0.00000000
   7        -0.00000000
   8        -0.03098388
   9         0.05441146
  10         0.00000000
Sym=     7a  
Ene=    -0.7520
Spin= Beta
Occup=    1.00000
   1        -0.00000000
   2         0.00000000
   3        -0.49457034
   4         0.86852575
   5         0.00000000
   6        -0.00000000
   7        -0.00000000
   8        -0.00858133
   9         0.01506985
  10        -0.00000000
Sym=     8a  
Ene=    -0.7049
Spin= Alpha
Occup=    1.00000
   1         0.00000000
   2         0.00000000
   3        -0.76137901
   4        -0.43355707
   5         0.00000000
   6        -0.00000000
   7        -0.00000000
   8         0.43593884
   9         0.24823953
  10         0.00000000
Sym=     8a  
Ene=    -0.5553
Spin= Beta
Occup=    1.00000
   1         0.00000000
   2         0.00000000
   3         0.01946404
   4        -0.03418122
   5        -0.00000000
   6         0.00000000
   7         0.00000000
   8        -0.49487881
   9         0.86906745
  10         0.00000000
Sym=     9a  
Ene=    -0.6340
Spin= Alpha
Occup=    1.00000
   1        -0.00000000
   2        -0.00000000
   3         0.04184146
   4        -0.07347869
   5        -0.00000000
   6         0.00000000
   7         0.00000000
   8        -0.49398246
   9         0.86749336
  10        -0.00000000
Sym=     9a  
Ene=     0.1240
Spin= Beta
Occup=    0.00000
   1        -0.00000000
   2        -0.00000000
   3        -0.02013459
   4        -0.01146537
   5        -0.00000000
   6         0.00000000
   7         0.00000000
   8         0.86919750
   9         0.49495286
  10        -0.00000000
Sym=    10a  
Ene=     0.0694
Spin= Alpha
Occup=    0.00000
   1         0.00036141
   2         0.00377237
   3         0.00000000
   4        -0.00000000
   5         1.00336803
   6        -0.00313156
   7        -0.05096483
   8        -0.00000000
   9        -0.00000000
  10         0.09618049
Sym=    10a  
Ene=     0.1260
Spin= Beta
Occup=    0.00000
   1         0.00354080
   2         0.04905833
   3        -0.00000000
   4        -0.00000000
   5         0.07871121
   6        -0.00025310
   7        -0.00069170
   8         0.00000000
   9         0.00000000
  10         1.00360891
