   This run of MOLCAS is using the pymolcas driver

                             OPE
                             OPE          NMOL  CASOP  ENMOLC A   SO
                 OPE        NMOLC        AS  OP EN  MO LC     AS  OP
                OPENM       OL CA        SO  PE NM  OL CA     SOP EN
                OP EN      MO   LC       AS  OP ENMOL  CASO   PENMOL
                OP  EN     MO   LC       AS  OP EN     MO     LC ASO
               OP   E  NMOL  C  AS       OP  EN MO     LC     AS  OP
               OP  E   NMO   LC AS        OPEN  MO     LCASOP EN   M
               O  PEN   MO  LCA  SO
            OPE   NMO   L   CAS    OP
        OPENMOL  CASOP     ENMOL   CASOPE
     OPENMOLCA   SOPENMOLCASOPEN   MOLCASOPE
    OPENMOLCAS   OP           EN   MOL    CAS
    OPENMOLCAS       OP  ENM        O     LCA
    OPENMOLCAS    OPEN  MOLCASO     P  E  NMO
    OPENMOLCAS     OP               E  N  MOL
    OPENMOLCA   SO           PENM   O  L  CAS    OPEN    MO    LCAS
    OPENMOLCA   SOP           ENM   O  L  CAS   OP  EN  MOLC  AS   O
    OPENMOLCA   SOPE           NM      O  LCA   S      OP  EN MO
    OPENMOLC                AS         O  PEN   M      OL  CA  SOPE
    OPENMO        LCASOPE  NMOL        C  ASO   P      ENMOLC     AS
    OPE     NMO      LCA  SO     P     E   NM   OL  CA SO  PE N   MO
          OPENMOLCA            SOPE   NMO        LCAS  O    P  ENMO
     OPENMOLCASOPENMOLCASOPENMOLCASOPENMOLCA
        OPENMOLCASOPENMOLCASOPENMOLCASOPE
            OPENMOLCASOPENMOLCASOPENM
               OPENMOLCASOPENMOLCA        version: ea724fe96-dirty
                   OPENMOLCASO
                       OPE                tag:

 OpenMolcas is free software; you can redistribute it and/or modify it
 under the terms of the GNU Lesser General Public License version 2.1.
 OpenMolcas is distributed in the hope that it will be useful, but it
 is provided "as is" and without any express or implied warranties.
 For more details see the full text of the license in the file
 LICENSE or in <http://www.gnu.org/licenses/>.

                 Copyright (C) The OpenMolcas Authors
           For the author list and the recommended citation,
                   consult the file CONTRIBUTORS.md

           *************************************************
           * pymolcas version py2.28                       *
           *   build c4a6d18ded8cb6cad61d2372a9abd97c      *
           *   (after the EMIL interpreter by V. Veryazov) *
           *************************************************

configuration info
------------------
C Compiler ID: Intel
C flags: -std=gnu99
Fortran Compiler ID: Intel
Fortran flags: -fpp -i8 -r8 -heap-arrays
Definitions: _MOLCAS_;_I8_;_LINUX_
Parallel: OFF (GA=OFF)


   -------------------------------------------------------------------------------
  |
  |              Project: 4.18
  |       Submitted from: /home/grierjones/DDCASPT2/iron_oxo_DDCASPT2/cluster/4.18
  |         Scratch area: /tmp/4.18
  |      Save outputs to: /home/grierjones/DDCASPT2/iron_oxo_DDCASPT2/cluster/4.18
  |               Molcas: /home/grierjones/Test/build
  |
  | Scratch area is empty
  |
  |       MOLCAS_DRIVER = /usr/local/pymolcas
  | MOLCAS_KEEP_WORKDIR = NO
  |  MOLCAS_NEW_WORKDIR = YES
  |       MOLCAS_NPROCS = 1
  |        MOLCAS_PRINT = NORMAL
  |       MOLCAS_SOURCE = /home/grierjones/Test/build
  |    MOLCAS_STRUCTURE = 0
  |
   -------------------------------------------------------------------------------

++ ---------   Input file   ---------

&GATEWAY
coord=4.18.xyz
Basis = ANO-RCC-VDZP
Group = nosymm
Expert
End of Input

&SEWARD
End of Input

&SCF
UHF
charge
2
spin
5

>>> COPY $WorkDir/4.18.scf.h5 $CurrDir/

&RASSCF
Title= RASSCF
FileOrb
/home/grierjones/DDCASPT2/iron_oxo_DDCASPT2/cluster/4.16/4.16.RasOrb
NACTEL
10 0 0
RAS2
14
Symmetry
1
Spin
5
charge
2
orblisting
all
ITERation
300 200

>>> COPY $WorkDir/4.18.rasscf.h5 $CurrDir/

>>> COPY $WorkDir/GMJ_Fock_MO.csv $CurrDir/4.18.GMJ_Fock_MO.csv

>>> COPY $WorkDir/GMJ_PT2_Fock_MO.csv $CurrDir/4.18.GMJ_PT2_Fock_MO.csv

&MOTRA
Frozen=0
LUMORB

>>> COPY $WorkDir/GMJ_one_int_indx.csv $CurrDir/4.18.GMJ_one_int_indx.csv

>>> COPY $WorkDir/GMJ_one_int.csv $CurrDir/4.18.GMJ_one_int.csv

>>> COPY $WorkDir/GMJ_two_int_indx.csv $CurrDir/4.18.GMJ_two_int_indx.csv

>>> COPY $WorkDir/GMJ_two_int.csv $CurrDir/4.18.GMJ_two_int.csv

&CASPT2
Frozen
0
MAXITER
50

>>> FOREACH i IN (B,E,F,G,H)

  >>> FOREACH j IN (P,M)

    >>> IF (-FILE GMJ_e2_${i}_${j}.csv)

      >>> COPY $WorkDir/GMJ_RHS_${i}_${j}.csv $CurrDir/GMJ_RHS_${i}_${j}.csv

      >>> COPY $WorkDir/GMJ_IVECW_${i}_${j}.csv $CurrDir/GMJ_IVECW_${i}_${j}.csv

      >>> COPY $WorkDir/GMJ_IVECX_${i}_${j}.csv $CurrDir/GMJ_IVECX_${i}_${j}.csv

      >>> COPY $WorkDir/GMJ_IVECC2_${i}_${j}.csv $CurrDir/GMJ_IVECC2_${i}_${j}.csv

      >>> COPY $WorkDir/GMJ_e2_${i}_${j}.csv $CurrDir/GMJ_e2_${i}_${j}.csv

    >>> END IF

  >>> END FOREACH

>>> END FOREACH

>>> FOREACH i IN (A,C,D)

  >>> IF (-FILE GMJ_e2_$i.csv)

    >>> COPY $WorkDir/GMJ_RHS_$i.csv $CurrDir/GMJ_RHS_$i.csv

    >>> COPY $WorkDir/GMJ_IVECW_$i.csv $CurrDir/GMJ_IVECW_$i.csv

    >>> COPY $WorkDir/GMJ_IVECX_$i.csv $CurrDir/GMJ_IVECX_$i.csv

    >>> COPY $WorkDir/GMJ_IVECC2_$i.csv $CurrDir/GMJ_IVECC2_$i.csv

    >>> COPY $WorkDir/GMJ_e2_$i.csv $CurrDir/GMJ_e2_$i.csv

  >>> END IF

>>> END FOREACH

-- ----------------------------------

--- Start Module: gateway at Sun Dec 22 22:09:31 2024 ---
 
()()()()()()()()()()()()()()()()()()()()()()()()()()()()()()()()()()()()()()()()()()()()()()()()()()

                                              &GATEWAY

                                   only a single process is used
                       available to each process: 2.0 GB of memory, 1 thread?
()()()()()()()()()()()()()()()()()()()()()()()()()()()()()()()()()()()()()()()()()()()()()()()()()()
 
 ###############################################################################
 ###############################################################################
 ###                                                                         ###
 ###                                                                         ###
 ###                                                                         ###
 ###    WARNING: EXPERT option is ON!                                        ###
 ###                                                                         ###
 ###                                                                         ###
 ###############################################################################
 ###############################################################################
 
++    Symmetry information:
      ---------------------
 
                    Character Table for C1 
 
                             E  
                    a        1  x, y, xy, Rz, z, xz, Ry, yz, Rx, I
--
 
 
++    Basis set information:
      ----------------------
 
 
      Basis set label: O.ANO-RCC...3S2P1D.
 
      Electronic valence basis set:
      ------------------
      Associated Effective Charge   8.000000 au
      Associated Actual Charge      8.000000 au
      Nuclear Model: Point charge
 
      Shell  nPrim  nBasis  Cartesian Spherical Contaminant
         s      14       3        X                  
         p       9       2        X                  
         d       4       1                 X         
 
 
      Basis set label: FE.ANO-RCC...5S4P2D1F.
 
      Electronic valence basis set:
      ------------------
      Associated Effective Charge  26.000000 au
      Associated Actual Charge     26.000000 au
      Nuclear Model: Point charge
 
      Shell  nPrim  nBasis  Cartesian Spherical Contaminant
         s      21       5        X                  
         p      15       4        X                  
         d      10       2                 X         
         f       6       1                 X         
--
 
 
++    Molecular structure info:
      -------------------------
 
                    ************************************************ 
                    **** Cartesian Coordinates / Bohr, Angstrom **** 
                    ************************************************ 
 
     Center  Label                x              y              z                     x              y              z
        1      O1               0.000000       0.000000       5.459003              0.000000       0.000000       2.888780
        2      FE2              0.000000       0.000000      -2.435441              0.000000       0.000000      -1.288780
--
 
 
            Nuclear Potential Energy             26.34764308 au
 
 ###############################################################################
 ###############################################################################
 ###                                                                         ###
 ###                                                                         ###
 ###    There were warnings during the execution                             ###
 ###    Please, check the output with care!                                  ###
 ###                                                                         ###
 ###                                                                         ###
 ###############################################################################
 ###############################################################################
--- Stop Module: gateway at Sun Dec 22 22:09:31 2024 /rc=_RC_ALL_IS_WELL_ ---
*** files: xmldump
    saved to directory /home/grierjones/DDCASPT2/iron_oxo_DDCASPT2/cluster/4.18

--- Start Module: seward at Sun Dec 22 22:09:31 2024 ---
 
()()()()()()()()()()()()()()()()()()()()()()()()()()()()()()()()()()()()()()()()()()()()()()()()()()

                                              &SEWARD

                                   only a single process is used
                       available to each process: 2.0 GB of memory, 1 thread?
()()()()()()()()()()()()()()()()()()()()()()()()()()()()()()()()()()()()()()()()()()()()()()()()()()
 
 ###############################################################################
 ###############################################################################
 ###                                                                         ###
 ###                                                                         ###
 ###                                                                         ###
 ###    WARNING: EXPERT option is ON!                                        ###
 ###                                                                         ###
 ###                                                                         ###
 ###############################################################################
 ###############################################################################
               SEWARD will generate:
                  Multipole Moment integrals up to order  2
                  Kinetic Energy integrals
                  Nuclear Attraction integrals (point charge)
                  One-Electron Hamiltonian integrals
                  Velocity integrals
                  Relativistic Douglas-Kroll-Hess integrals:
                    - Parametrization         : EXP
                    - DKH order of Hamiltonian: 2
                    - DKH order of Properties : 0
                         - multipole moment operators
                         - electric potential operators
                         - contact operators
                  Atomic mean-field integrals
                  Two-Electron Repulsion integrals
 
                   Integrals are discarded if absolute value <: 0.10E-13
                   Integral cutoff threshold is set to       <: 0.10E-15
 
            Nuclear Potential Energy             26.34764308 au
 
 
      Basis set specifications :
      Symmetry species         a  
      Basis functions           48
 
 
  Input file to MOLDEN was generated!
 
 ###############################################################################
 ###############################################################################
 ###                                                                         ###
 ###                                                                         ###
 ###    There were warnings during the execution                             ###
 ###    Please, check the output with care!                                  ###
 ###                                                                         ###
 ###                                                                         ###
 ###############################################################################
 ###############################################################################
--- Stop Module: seward at Sun Dec 22 22:09:32 2024 /rc=_RC_ALL_IS_WELL_ ---
*** files: 4.18.GssOrb 4.18.guessorb.h5 4.18.guessorb.molden xmldump
    saved to directory /home/grierjones/DDCASPT2/iron_oxo_DDCASPT2/cluster/4.18

*** symbolic link created: INPORB -> 4.18.GssOrb
--- Start Module: scf at Sun Dec 22 22:09:32 2024 ---
 
()()()()()()()()()()()()()()()()()()()()()()()()()()()()()()()()()()()()()()()()()()()()()()()()()()

                                                &SCF

                                   only a single process is used
                       available to each process: 2.0 GB of memory, 1 thread?
()()()()()()()()()()()()()()()()()()()()()()()()()()()()()()()()()()()()()()()()()()()()()()()()()()
 
 *** Possible bug in opening file
 *** isFreeUnit resets the unit number
++    Input section:
      --------------
 
      Header of the integral files:
      
       Integrals generated by seward 4.2.0  , Sun Dec 22 22:09:31 2024
 
 
      Cartesian coordinates in Angstrom:
      -----------------------------------------------------
      No.  Label        X            Y            Z        
      -----------------------------------------------------
       1   O1         0.00000000   0.00000000   2.88878000
       2   FE2        0.00000000   0.00000000  -1.28878000
      -----------------------------------------------------
      Nuclear repulsion energy =   26.34764308
--
 
++    Orbital specifications:
      -----------------------
 
      Symmetry species               1
                                     a
      Frozen orbitals                0
      Start temperature = 0.500
      End temperature   = 0.010
      Temperature Factor= 0.460
      Deleted orbitals               0
      Total number of orbitals      48
      Number of basis functions     48
--
 
      Molecular charge                           2.000
 
++    Optimization specifications:
      ----------------------------
 
      SCF Algorithm: Conventional USCF
      D(i)-D(i-1) density differences are used
      Number of density matrices in core                5
      Maximum number of NDDO SCF iterations           400
      Maximum number of HF SCF iterations             400
      Threshold for SCF energy change            0.10E-08
      Threshold for density matrix               0.10E-03
      Threshold for Fock matrix                  0.15E-03
      Threshold for linear dependence            0.10E-08
      Threshold at which DIIS is turned on       0.15E+00
      Threshold at which QNR/C2DIIS is turned on 0.75E-01
      Threshold for Norm(delta) (QNR/C2DIIS)     0.20E-04
      DIIS extrapolation of the SCF procedure
      All orbitals punched on: UHFORB
--
 
      Input vectors read from INPORB
      Orbital file label: *Guess orbitals
 
 
++ Convergence information
                               UHF SCF        iterations: Energy and convergence statistics
 
Iter     Tot. SCF        One-elec.       Two-elec.     Energy      Max Dij or  Max Fij      DNorm      TNorm      AccCon     Time
         Energy          Energy          Energy        Change      Delta Norm                                                in Sec.
 
 The total and one-electron energies are shifted by a value of      1000. a.u.
 
   1  -343.276628227  -885.633801210   516.009529905   0.00E+00    0.16E+00*   0.37E+00*    0.75E+01   0.18E+03   None         0.
   2  -343.460783404  -881.416356242   511.607929759  -0.18E+00*   0.11E+00*   0.19E+00*    0.10E+01   0.18E+03   EDIIS        0.
   3  -341.629474015  -929.402659242   561.425542148   0.18E+01*   0.65E-01*   0.18E+00*    0.18E+01   0.19E+03   EDIIS        0.
   4  -343.012438210  -870.548998204   501.188916916  -0.14E+01*   0.13E+00*   0.98E-01*    0.15E+01   0.18E+03   EDIIS        0.
   5  -344.088802758  -902.877850856   532.441405020  -0.11E+01*   0.74E-01*   0.74E-01*    0.85E+00   0.18E+03   EDIIS        0.
   6  -344.280198865  -876.341000490   505.713158546  -0.19E+00*   0.49E+00*   0.20E+00*    0.18E+01   0.18E+03   EDIIS        0.
   7  -341.941490806  -919.328172414   551.039038529   0.23E+01*   0.87E-01*   0.40E-01*    0.28E+01   0.19E+03   EDIIS        0.
   8  -345.243909571  -883.603407927   512.011855277  -0.33E+01*   0.28E+00*   0.10E+00*    0.16E+01   0.18E+03   EDIIS        0.
   9  -345.291297544  -887.104757679   515.465817056  -0.47E-01*   0.12E+00*   0.73E-01*    0.63E+00   0.18E+03   EDIIS        0.
  10  -345.300182098  -885.815896382   514.168071205  -0.89E-02*   0.83E-01*   0.14E-01*    0.27E+00   0.18E+03   EDIIS        0.
 
       Fermi aufbau procedure completed!
      nOcc(alpha)=   18
      nOcc(beta) =   14
 
  11  -345.302410993  -886.266669208   514.616615136  -0.22E-02*   0.39E-01*   0.13E-01*    0.14E+00   0.18E+03   EDIIS        0.
  12  -345.303124048  -886.095715972   514.444948845  -0.71E-03*   0.21E-01*   0.67E-02*    0.77E-01   0.18E+03   EDIIS        0.
  13  -345.303374199  -886.156769965   514.505752687  -0.25E-03*   0.11E-01*   0.45E-02*    0.43E-01   0.18E+03   EDIIS        0.
  14  -345.303467277  -886.132666718   514.481556362  -0.93E-04*   0.62E-02*   0.27E-02*    0.25E-01   0.18E+03   EDIIS        0.
  15  -345.303503095  -886.141148842   514.490002669  -0.36E-04*   0.12E-02*   0.44E-02*    0.15E-01   0.18E+03   c2DIIS       0.
  16  -345.303526278  -886.132121936   514.480952579  -0.23E-04*   0.93E-03*   0.18E-03*    0.28E-02   0.18E+03   QNRc2DIIS    0.
  17  -345.303526449  -886.140696516   514.489526988  -0.17E-06*   0.67E-03*   0.67E-04     0.13E-02   0.18E+03   QNRc2DIIS    0.
  18  -345.303526502  -886.139337447   514.488167866  -0.53E-07*   0.39E-03*   0.39E-04     0.90E-03   0.18E+03   QNRc2DIIS    0.
  19  -345.303526513  -886.138356142   514.487186550  -0.11E-07*   0.13E-03*   0.91E-05     0.51E-03   0.18E+03   QNRc2DIIS    0.
  20  -345.303526514  -886.138390768   514.487221176  -0.91E-09    0.64E-05    0.22E-05     0.18E-03   0.18E+03   QNRc2DIIS    0.
 
       Convergence after 20 Macro Iterations
--
 
 *****************************************************************************************************************************
 *                                                                                                                           *
 *                                             SCF/KS-DFT Program, Final results                                             *
 *                                                                                                                           *
 *                                                                                                                           *
 *                                                                                                                           *
 *                                                       Final Results                                                       *
 *                                                                                                                           *
 *****************************************************************************************************************************
 
::    Total SCF energy                              -1345.3035265139
      One-electron energy                           -1886.1383907681
      Two-electron energy                             514.4872211757
      Nuclear repulsion energy                         26.3476430786
      Kinetic energy (interpolated)                  1399.7898839125
      Virial theorem                                    0.9610753314
      Total spin, S(S+1)                                8.0120427857
      Total spin, S                                     2.3743769387
      Max non-diagonal density matrix element           0.0000029477
      Max non-diagonal Fock matrix element              0.0000005103
 
 
      All orbitals with orbital energies smaller than  E(LUMO)+0.5 are printed
 
++    Molecular orbitals:
      -------------------
 
      Title: UHF orbitals (alpha)

      Molecular orbitals for symmetry species 1: a  
 
          Orbital            1         2         3         4         5         6         7         8         9        10    
          Energy         -264.6136  -33.4912  -28.5550  -28.5550  -28.5550  -20.8948   -5.4393   -3.9793   -3.9793   -3.9792
          Occ. No.          1.0000    1.0000    1.0000    1.0000    1.0000    1.0000    1.0000    1.0000    1.0000    1.0000
 
        1 O1     1s        -0.0000   -0.0000   -0.0000   -0.0000   -0.0000    1.0000   -0.0001   -0.0000    0.0000   -0.0000
        2 O1     2s        -0.0000   -0.0000   -0.0001   -0.0000   -0.0000   -0.0022   -0.0005   -0.0000    0.0000   -0.0002
        3 O1     3s         0.0000   -0.0000   -0.0001   -0.0000   -0.0000    0.0004   -0.0006   -0.0000    0.0000   -0.0002
        4 O1     2px        0.0000   -0.0000    0.0000   -0.0000   -0.0000    0.0000   -0.0000    0.0000   -0.0000   -0.0000
        5 O1     3px       -0.0000   -0.0000    0.0000   -0.0001   -0.0000   -0.0000    0.0000    0.0001   -0.0001    0.0000
        6 O1     2py       -0.0000    0.0000    0.0000    0.0000   -0.0000    0.0000    0.0000   -0.0000   -0.0000    0.0000
        7 O1     3py       -0.0000    0.0000   -0.0000    0.0000   -0.0001   -0.0000   -0.0000   -0.0001   -0.0001    0.0000
        8 O1     2pz       -0.0000    0.0000    0.0000    0.0000    0.0000   -0.0001    0.0001    0.0000   -0.0000    0.0000
        9 O1     3pz       -0.0000    0.0000    0.0001    0.0000    0.0000    0.0000    0.0002   -0.0000    0.0000   -0.0002
       10 O1     3d2-       0.0000    0.0000    0.0000    0.0000   -0.0000   -0.0000   -0.0000   -0.0000    0.0000   -0.0000
       11 O1     3d1-      -0.0000   -0.0000   -0.0000   -0.0000    0.0000   -0.0000   -0.0000    0.0000    0.0000    0.0000
       12 O1     3d0        0.0000   -0.0000   -0.0000   -0.0000   -0.0000    0.0009    0.0001    0.0000   -0.0000    0.0000
       13 O1     3d1+      -0.0000   -0.0000   -0.0000    0.0000    0.0000    0.0000    0.0000   -0.0000    0.0000    0.0000
       14 O1     3d2+      -0.0000   -0.0000    0.0000   -0.0000    0.0000    0.0000    0.0000   -0.0000    0.0000    0.0000
       15 FE2    1s         1.0000   -0.0000   -0.0000   -0.0000    0.0000   -0.0000    0.0000   -0.0000    0.0000   -0.0000
       16 FE2    2s         0.0000    1.0000   -0.0000   -0.0000   -0.0000   -0.0000   -0.0035    0.0000    0.0000   -0.0000
       17 FE2    3s        -0.0000    0.0035    0.0000    0.0000    0.0000   -0.0000    0.9999   -0.0000    0.0000   -0.0001
       18 FE2    4s         0.0000   -0.0003    0.0000    0.0000    0.0000   -0.0001   -0.0076   -0.0000   -0.0000   -0.0000
       19 FE2    5s        -0.0000    0.0004    0.0000    0.0000    0.0000   -0.0001    0.0083    0.0000    0.0000    0.0000
       20 FE2    2px        0.0000   -0.0000   -0.0000    0.9790    0.2038    0.0000   -0.0000    0.0024   -0.0025   -0.0000
       21 FE2    3px       -0.0000    0.0000   -0.0000    0.0034    0.0007    0.0000   -0.0000   -0.6859    0.7272    0.0000
       22 FE2    4px        0.0000    0.0000    0.0000   -0.0006   -0.0001    0.0000    0.0000    0.0131   -0.0139   -0.0000
       23 FE2    5px        0.0000    0.0000   -0.0000    0.0015    0.0003    0.0000   -0.0000   -0.0125    0.0132    0.0000
       24 FE2    2py       -0.0000    0.0000   -0.0000   -0.2038    0.9790    0.0000    0.0000   -0.0025   -0.0024   -0.0000
       25 FE2    3py        0.0000   -0.0000   -0.0000   -0.0007    0.0034    0.0000    0.0000    0.7272    0.6859    0.0000
       26 FE2    4py       -0.0000   -0.0000    0.0000    0.0001   -0.0006   -0.0000   -0.0000   -0.0139   -0.0131   -0.0000
       27 FE2    5py       -0.0000   -0.0000   -0.0000   -0.0003    0.0015    0.0000    0.0000    0.0132    0.0125    0.0000
       28 FE2    2pz        0.0000    0.0000    1.0000    0.0000    0.0000    0.0000   -0.0000   -0.0000    0.0000   -0.0035
       29 FE2    3pz       -0.0000    0.0000    0.0035    0.0000    0.0000   -0.0000    0.0001    0.0000   -0.0000    0.9996
       30 FE2    4pz       -0.0000    0.0000   -0.0006   -0.0000   -0.0000   -0.0001    0.0001   -0.0000    0.0000   -0.0192
       31 FE2    5pz       -0.0000    0.0000    0.0015    0.0000    0.0000   -0.0001    0.0001    0.0000   -0.0000    0.0182
       32 FE2    3d2-      -0.0000    0.0000   -0.0000    0.0000   -0.0000    0.0000    0.0000    0.0000   -0.0000   -0.0000
       33 FE2    4d2-       0.0000   -0.0000    0.0000   -0.0000    0.0000    0.0000   -0.0000   -0.0000    0.0000    0.0000
       34 FE2    3d1-      -0.0000    0.0000    0.0000   -0.0000    0.0000   -0.0000   -0.0000    0.0000    0.0000    0.0000
       35 FE2    4d1-      -0.0000   -0.0000   -0.0000   -0.0000    0.0000   -0.0000    0.0000   -0.0000   -0.0000   -0.0000
       36 FE2    3d0       -0.0000    0.0000    0.0000    0.0000    0.0000   -0.0000   -0.0000   -0.0000   -0.0000    0.0001
       37 FE2    4d0       -0.0000    0.0000    0.0000    0.0000    0.0000   -0.0001    0.0001    0.0000    0.0000   -0.0001
       38 FE2    3d1+       0.0000    0.0000   -0.0000    0.0000    0.0000    0.0000   -0.0000   -0.0000    0.0000    0.0000
       39 FE2    4d1+       0.0000    0.0000   -0.0000    0.0000    0.0000    0.0000    0.0000    0.0000   -0.0000   -0.0000
       40 FE2    3d2+      -0.0000    0.0000   -0.0000    0.0000    0.0000   -0.0000   -0.0000   -0.0000    0.0000    0.0000
       41 FE2    4d2+      -0.0000    0.0000    0.0000   -0.0000   -0.0000   -0.0000    0.0000    0.0000   -0.0000   -0.0000
       42 FE2    4f3-       0.0000   -0.0000    0.0000    0.0000    0.0000    0.0000    0.0000   -0.0000   -0.0000   -0.0000
       43 FE2    4f2-       0.0000   -0.0000    0.0000    0.0000    0.0000   -0.0000   -0.0000    0.0000    0.0000   -0.0000
       44 FE2    4f1-      -0.0000   -0.0000   -0.0000   -0.0000    0.0000   -0.0000    0.0000   -0.0000   -0.0000   -0.0000
       45 FE2    4f0       -0.0000    0.0000    0.0000    0.0000    0.0000   -0.0000    0.0000   -0.0000    0.0000   -0.0000
       46 FE2    4f1+       0.0000   -0.0000   -0.0000    0.0000    0.0000   -0.0000    0.0000    0.0000   -0.0000   -0.0000
       47 FE2    4f2+      -0.0000    0.0000   -0.0000    0.0000    0.0000   -0.0000   -0.0000    0.0000   -0.0000   -0.0000
       48 FE2    4f3+      -0.0000    0.0000    0.0000    0.0000   -0.0000   -0.0000   -0.0000    0.0000    0.0000   -0.0000
 
          Orbital           11        12        13        14        15        16        17        18        19        20    
          Energy           -1.6600   -1.6600   -1.6600   -1.6599   -1.6599   -1.3373   -0.9481   -0.7755   -0.4801   -0.4801
          Occ. No.          1.0000    1.0000    1.0000    1.0000    1.0000    1.0000    1.0000    1.0000    0.0000    0.0000
 
        1 O1     1s        -0.0000    0.0000    0.0001   -0.0000    0.0000    0.0022    0.0009    0.0005    0.0000   -0.0000
        2 O1     2s        -0.0000    0.0000    0.0020   -0.0000    0.0000    0.9989   -0.0012    0.0287    0.0000   -0.0000
        3 O1     3s        -0.0000    0.0000    0.0011   -0.0000    0.0000    0.0222    0.0078   -0.0146    0.0000   -0.0000
        4 O1     2px       -0.0000    0.0000    0.0000    0.0004   -0.0002    0.0000   -0.0000    0.0000    0.0000    0.0001
        5 O1     3px       -0.0000    0.0000    0.0000    0.0007   -0.0003   -0.0000    0.0000    0.0000   -0.0008   -0.0058
        6 O1     2py       -0.0000   -0.0000   -0.0000    0.0002    0.0004   -0.0000    0.0000   -0.0000    0.0001   -0.0000
        7 O1     3py       -0.0000   -0.0000   -0.0000    0.0003    0.0007   -0.0000    0.0000   -0.0000   -0.0058    0.0008
        8 O1     2pz        0.0000   -0.0000   -0.0011    0.0000   -0.0000   -0.0239   -0.0310    0.9922   -0.0000    0.0000
        9 O1     3pz        0.0000   -0.0000   -0.0002    0.0000   -0.0000   -0.0094   -0.0013    0.0515   -0.0000    0.0000
       10 O1     3d2-       0.0000    0.0000   -0.0000    0.0000    0.0000   -0.0000    0.0000    0.0000   -0.0000    0.0000
       11 O1     3d1-       0.0000    0.0000    0.0000   -0.0000   -0.0001   -0.0000    0.0000    0.0000   -0.0001    0.0000
       12 O1     3d0       -0.0000    0.0000    0.0001   -0.0000    0.0000    0.0301   -0.0001   -0.0079    0.0000   -0.0000
       13 O1     3d1+       0.0000   -0.0000   -0.0000   -0.0001    0.0000    0.0000   -0.0000   -0.0000   -0.0000   -0.0001
       14 O1     3d2+       0.0000   -0.0000    0.0000   -0.0000   -0.0000    0.0000   -0.0000   -0.0000   -0.0000    0.0000
       15 FE2    1s         0.0000    0.0000   -0.0000    0.0000   -0.0000   -0.0000   -0.0000    0.0001   -0.0000   -0.0000
       16 FE2    2s         0.0000   -0.0000   -0.0000    0.0000   -0.0000   -0.0001    0.0004    0.0005   -0.0000   -0.0000
       17 FE2    3s        -0.0000    0.0000    0.0000   -0.0000    0.0000   -0.0003    0.0101    0.0031   -0.0000   -0.0000
       18 FE2    4s         0.0000   -0.0000   -0.0003    0.0000   -0.0000    0.0022    0.9270    0.0488   -0.0000   -0.0000
       19 FE2    5s         0.0000   -0.0000   -0.0003    0.0000   -0.0000   -0.0018   -0.3713   -0.0254   -0.0000    0.0000
       20 FE2    2px       -0.0000   -0.0000   -0.0000   -0.0000    0.0000   -0.0000   -0.0000    0.0000    0.0001    0.0005
       21 FE2    3px        0.0000    0.0000   -0.0000   -0.0001    0.0000    0.0000    0.0000   -0.0000    0.0025    0.0184
       22 FE2    4px        0.0000   -0.0000   -0.0000   -0.0003    0.0001    0.0000    0.0000   -0.0000    0.1339    0.9907
       23 FE2    5px        0.0000    0.0000   -0.0000   -0.0000    0.0000    0.0000   -0.0000   -0.0000    0.0044    0.0324
       24 FE2    2py       -0.0000    0.0000   -0.0000   -0.0000   -0.0000    0.0000   -0.0000   -0.0000    0.0005   -0.0001
       25 FE2    3py        0.0000    0.0000    0.0000   -0.0000   -0.0001   -0.0000    0.0000    0.0000    0.0184   -0.0025
       26 FE2    4py        0.0000    0.0000    0.0000   -0.0001   -0.0003    0.0000   -0.0000   -0.0000    0.9907   -0.1339
       27 FE2    5py        0.0000    0.0000   -0.0000   -0.0000   -0.0000    0.0000   -0.0000    0.0000    0.0324   -0.0044
       28 FE2    2pz        0.0000    0.0000   -0.0000    0.0000   -0.0000   -0.0000   -0.0000    0.0000   -0.0000    0.0000
       29 FE2    3pz        0.0000   -0.0000   -0.0001    0.0000   -0.0000   -0.0002   -0.0002    0.0007   -0.0000    0.0000
       30 FE2    4pz        0.0000   -0.0000   -0.0007    0.0000   -0.0000    0.0017   -0.0099   -0.0516   -0.0000    0.0000
       31 FE2    5pz        0.0000   -0.0000   -0.0001    0.0000   -0.0000   -0.0000   -0.0004   -0.0024   -0.0000    0.0000
       32 FE2    3d2-       0.0672    0.9884   -0.0000   -0.0000    0.0000   -0.0000   -0.0000   -0.0000    0.0000    0.0000
       33 FE2    4d2-      -0.0092   -0.1359    0.0000    0.0000   -0.0000   -0.0000   -0.0000   -0.0000   -0.0000   -0.0000
       34 FE2    3d1-      -0.0000   -0.0000   -0.0000    0.3569    0.9241    0.0000    0.0000    0.0000    0.0001   -0.0000
       35 FE2    4d1-       0.0000    0.0000    0.0000   -0.0491   -0.1272    0.0000   -0.0000   -0.0000   -0.0010    0.0001
       36 FE2    3d0       -0.0000    0.0000    0.9906   -0.0000    0.0000   -0.0011   -0.0001    0.0017   -0.0000    0.0000
       37 FE2    4d0        0.0000   -0.0000   -0.1366    0.0000   -0.0000    0.0010   -0.0011   -0.0085    0.0000    0.0000
       38 FE2    3d1+      -0.0000    0.0000    0.0000    0.9241   -0.3569    0.0000    0.0000    0.0000    0.0000    0.0001
       39 FE2    4d1+       0.0000   -0.0000   -0.0000   -0.1272    0.0491    0.0000   -0.0000    0.0000   -0.0001   -0.0010
       40 FE2    3d2+       0.9884   -0.0672    0.0000    0.0000    0.0000   -0.0000    0.0000   -0.0000   -0.0000    0.0000
       41 FE2    4d2+      -0.1359    0.0092   -0.0000   -0.0000   -0.0000   -0.0000    0.0000   -0.0000    0.0000    0.0000
       42 FE2    4f3-      -0.0000   -0.0000   -0.0000    0.0000    0.0000    0.0000    0.0000   -0.0000    0.0000    0.0000
       43 FE2    4f2-       0.0000    0.0000   -0.0000   -0.0000    0.0000   -0.0000    0.0000    0.0000   -0.0000   -0.0000
       44 FE2    4f1-      -0.0000    0.0000   -0.0000    0.0000    0.0000    0.0000   -0.0000   -0.0000   -0.0000    0.0000
       45 FE2    4f0       -0.0000    0.0000    0.0000   -0.0000    0.0000    0.0001   -0.0000   -0.0003    0.0000    0.0000
       46 FE2    4f1+      -0.0000    0.0000    0.0000    0.0000   -0.0000   -0.0000    0.0000    0.0000   -0.0000   -0.0000
       47 FE2    4f2+       0.0000   -0.0000    0.0000    0.0000    0.0000    0.0000    0.0000   -0.0000    0.0000    0.0000
       48 FE2    4f3+      -0.0000    0.0000   -0.0000    0.0000   -0.0000   -0.0000   -0.0000    0.0000    0.0000    0.0000
 
          Orbital           21        22        23        24    
          Energy           -0.4777   -0.2446   -0.1656   -0.1656
          Occ. No.          0.0000    0.0000    0.0000    0.0000
 
        1 O1     1s        -0.0037   -0.0087   -0.0000   -0.0000
        2 O1     2s        -0.0526   -0.1004   -0.0000    0.0000
        3 O1     3s        -0.0176   -0.0268   -0.0000   -0.0000
        4 O1     2px        0.0000   -0.0000    0.9439    0.0572
        5 O1     3px        0.0000    0.0000    0.3211    0.0195
        6 O1     2py       -0.0000   -0.0000   -0.0572    0.9439
        7 O1     3py       -0.0000   -0.0000   -0.0195    0.3211
        8 O1     2pz        0.1211    0.0838   -0.0000    0.0000
        9 O1     3pz        0.0235    0.0239   -0.0000    0.0000
       10 O1     3d2-      -0.0000    0.0000    0.0000   -0.0000
       11 O1     3d1-       0.0000    0.0000    0.0005   -0.0075
       12 O1     3d0       -0.0003   -0.0007    0.0000   -0.0000
       13 O1     3d1+      -0.0000    0.0000   -0.0075   -0.0005
       14 O1     3d2+      -0.0000   -0.0000    0.0000   -0.0000
       15 FE2    1s         0.0000    0.0000   -0.0000    0.0000
       16 FE2    2s         0.0001   -0.0001   -0.0000    0.0000
       17 FE2    3s         0.0008   -0.0041   -0.0000    0.0000
       18 FE2    4s         0.0154    0.3807   -0.0000    0.0000
       19 FE2    5s        -0.0040    0.9409   -0.0000    0.0000
       20 FE2    2px        0.0000   -0.0000   -0.0001   -0.0000
       21 FE2    3px        0.0000    0.0000   -0.0015   -0.0001
       22 FE2    4px        0.0000    0.0000   -0.0343   -0.0021
       23 FE2    5px        0.0000   -0.0000    0.0030    0.0002
       24 FE2    2py        0.0000    0.0000    0.0000   -0.0001
       25 FE2    3py        0.0000    0.0000    0.0001   -0.0015
       26 FE2    4py        0.0000    0.0000    0.0021   -0.0343
       27 FE2    5py        0.0000   -0.0000   -0.0002    0.0030
       28 FE2    2pz        0.0005    0.0000   -0.0000    0.0000
       29 FE2    3pz        0.0191    0.0008   -0.0000    0.0000
       30 FE2    4pz        1.0064    0.0197   -0.0000    0.0000
       31 FE2    5pz        0.0329   -0.0011   -0.0000   -0.0000
       32 FE2    3d2-      -0.0000    0.0000    0.0000    0.0000
       33 FE2    4d2-       0.0000    0.0000   -0.0000   -0.0000
       34 FE2    3d1-       0.0000   -0.0000   -0.0001    0.0024
       35 FE2    4d1-      -0.0000   -0.0000   -0.0018    0.0290
       36 FE2    3d0        0.0006   -0.0004    0.0000   -0.0000
       37 FE2    4d0       -0.0030   -0.0067    0.0000   -0.0000
       38 FE2    3d1+      -0.0000    0.0000    0.0024    0.0001
       39 FE2    4d1+      -0.0000    0.0000    0.0290    0.0018
       40 FE2    3d2+      -0.0000    0.0000   -0.0000   -0.0000
       41 FE2    4d2+       0.0000    0.0000   -0.0000   -0.0000
       42 FE2    4f3-       0.0000   -0.0000   -0.0000   -0.0000
       43 FE2    4f2-      -0.0000   -0.0000   -0.0000    0.0000
       44 FE2    4f1-      -0.0000   -0.0000   -0.0000    0.0005
       45 FE2    4f0       -0.0001   -0.0001    0.0000   -0.0000
       46 FE2    4f1+      -0.0000   -0.0000    0.0005    0.0000
       47 FE2    4f2+       0.0000    0.0000    0.0000    0.0000
       48 FE2    4f3+      -0.0000    0.0000    0.0000    0.0000
--
 
 
  Input file to MOLDEN was generated!
 
 
++    Static properties:
      ------------------
 
 
      LoProp Charges per center
 

                   O1       FE2   
      Nuclear      8.0000  26.0000
      Electronic  -7.9954 -24.0046
 
      Total        0.0046   1.9954
--
 
 
      All orbitals with orbital energies smaller than  E(LUMO)+0.5 are printed
 
++    Molecular orbitals:
      -------------------
 
      Title: UHF orbitals (beta)

      Molecular orbitals for symmetry species 1: a  
 
          Orbital            1         2         3         4         5         6         7         8         9        10    
          Energy         -264.6057  -33.3145  -28.3825  -28.3825  -28.3825  -20.9805   -4.9652   -3.4168   -3.4168   -3.4167
          Occ. No.          1.0000    1.0000    1.0000    1.0000    1.0000    1.0000    1.0000    1.0000    1.0000    1.0000
 
        1 O1     1s        -0.0000    0.0000   -0.0000   -0.0000    0.0000    1.0000   -0.0000   -0.0000   -0.0000    0.0000
        2 O1     2s        -0.0000    0.0000   -0.0000   -0.0000    0.0001    0.0019   -0.0002   -0.0000   -0.0000    0.0002
        3 O1     3s         0.0000    0.0000   -0.0000   -0.0000    0.0001   -0.0017   -0.0002   -0.0000   -0.0000    0.0003
        4 O1     2px        0.0000   -0.0000    0.0000    0.0000    0.0000    0.0000   -0.0000    0.0000    0.0000   -0.0000
        5 O1     3px       -0.0000   -0.0000    0.0000    0.0000    0.0000   -0.0000    0.0000    0.0001    0.0002    0.0000
        6 O1     2py       -0.0000    0.0000   -0.0000    0.0000    0.0000    0.0000    0.0000    0.0000   -0.0000    0.0000
        7 O1     3py       -0.0000    0.0000   -0.0000    0.0000   -0.0000   -0.0000   -0.0000    0.0002   -0.0001    0.0000
        8 O1     2pz       -0.0000   -0.0000    0.0000    0.0000   -0.0000   -0.0001    0.0000    0.0000    0.0000   -0.0003
        9 O1     3pz       -0.0000   -0.0000    0.0000    0.0000   -0.0001    0.0001    0.0000    0.0000    0.0000   -0.0006
       10 O1     3d2-       0.0000    0.0000    0.0000   -0.0000    0.0000    0.0000   -0.0000    0.0000    0.0000   -0.0000
       11 O1     3d1-      -0.0000   -0.0000    0.0000   -0.0000   -0.0000    0.0000   -0.0000   -0.0000    0.0000    0.0000
       12 O1     3d0        0.0000   -0.0000   -0.0000   -0.0000    0.0000   -0.0004    0.0000   -0.0000   -0.0000    0.0001
       13 O1     3d1+      -0.0000   -0.0000   -0.0000   -0.0000   -0.0000   -0.0000    0.0000   -0.0000   -0.0000    0.0000
       14 O1     3d2+      -0.0000   -0.0000   -0.0000    0.0000    0.0000   -0.0000    0.0000    0.0000    0.0000    0.0000
       15 FE2    1s         1.0000   -0.0000    0.0000    0.0000   -0.0000    0.0000    0.0000   -0.0000    0.0000   -0.0000
       16 FE2    2s         0.0000    1.0000    0.0000    0.0000   -0.0000    0.0000    0.0011    0.0000   -0.0000   -0.0000
       17 FE2    3s        -0.0000   -0.0011    0.0000    0.0000   -0.0000    0.0000    1.0000    0.0000    0.0000   -0.0003
       18 FE2    4s         0.0000    0.0002    0.0000    0.0000   -0.0000    0.0001   -0.0028   -0.0000   -0.0000   -0.0001
       19 FE2    5s        -0.0000   -0.0002    0.0000    0.0000   -0.0000    0.0001    0.0033    0.0000    0.0000   -0.0002
       20 FE2    2px        0.0000   -0.0000    0.9735    0.2288    0.0000    0.0000   -0.0000    0.0015    0.0029    0.0000
       21 FE2    3px       -0.0000    0.0000   -0.0031   -0.0007   -0.0000    0.0000   -0.0000    0.4640    0.8857    0.0000
       22 FE2    4px        0.0000    0.0000    0.0004    0.0001    0.0000   -0.0000   -0.0000   -0.0053   -0.0101   -0.0000
       23 FE2    5px        0.0000    0.0000   -0.0011   -0.0003   -0.0000    0.0000   -0.0000    0.0025    0.0049    0.0000
       24 FE2    2py       -0.0000    0.0000   -0.2288    0.9735    0.0000    0.0000    0.0000    0.0029   -0.0015    0.0000
       25 FE2    3py        0.0000   -0.0000    0.0007   -0.0031   -0.0000    0.0000    0.0000    0.8857   -0.4640    0.0000
       26 FE2    4py       -0.0000   -0.0000   -0.0001    0.0004    0.0000    0.0000   -0.0000   -0.0101    0.0053   -0.0000
       27 FE2    5py       -0.0000   -0.0000    0.0003   -0.0011   -0.0000    0.0000    0.0000    0.0049   -0.0025    0.0000
       28 FE2    2pz        0.0000    0.0000   -0.0000   -0.0000    1.0000    0.0000   -0.0000   -0.0000   -0.0000    0.0032
       29 FE2    3pz       -0.0000    0.0000    0.0000    0.0000   -0.0032    0.0000    0.0002   -0.0000   -0.0000    0.9999
       30 FE2    4pz       -0.0000   -0.0000   -0.0000   -0.0000    0.0004    0.0001    0.0000    0.0000    0.0000   -0.0116
       31 FE2    5pz       -0.0000   -0.0000    0.0000    0.0000   -0.0011    0.0001    0.0000   -0.0000   -0.0000    0.0054
       32 FE2    3d2-      -0.0000    0.0000    0.0000   -0.0000   -0.0000   -0.0000    0.0000   -0.0000   -0.0000   -0.0000
       33 FE2    4d2-       0.0000   -0.0000   -0.0000    0.0000    0.0000    0.0000   -0.0000    0.0000    0.0000    0.0000
       34 FE2    3d1-      -0.0000    0.0000   -0.0000    0.0000    0.0000    0.0000   -0.0000    0.0001   -0.0001   -0.0000
       35 FE2    4d1-      -0.0000   -0.0000    0.0000   -0.0000   -0.0000    0.0000    0.0000   -0.0000    0.0000   -0.0000
       36 FE2    3d0       -0.0000   -0.0000    0.0000    0.0000   -0.0000    0.0000   -0.0000   -0.0000    0.0000    0.0001
       37 FE2    4d0       -0.0000   -0.0000    0.0000    0.0000   -0.0000    0.0001    0.0000    0.0000    0.0000   -0.0001
       38 FE2    3d1+       0.0000    0.0000    0.0000    0.0000    0.0000    0.0000   -0.0000    0.0001    0.0001    0.0000
       39 FE2    4d1+       0.0000    0.0000   -0.0000   -0.0000   -0.0000    0.0000    0.0000   -0.0000   -0.0000   -0.0000
       40 FE2    3d2+      -0.0000    0.0000    0.0000    0.0000   -0.0000    0.0000   -0.0000    0.0000   -0.0000    0.0000
       41 FE2    4d2+      -0.0000    0.0000   -0.0000   -0.0000    0.0000   -0.0000    0.0000   -0.0000   -0.0000   -0.0000
       42 FE2    4f3-       0.0000   -0.0000    0.0000    0.0000    0.0000    0.0000   -0.0000   -0.0000    0.0000   -0.0000
       43 FE2    4f2-       0.0000   -0.0000    0.0000    0.0000    0.0000   -0.0000   -0.0000    0.0000   -0.0000   -0.0000
       44 FE2    4f1-      -0.0000   -0.0000    0.0000   -0.0000   -0.0000    0.0000   -0.0000   -0.0000    0.0000   -0.0000
       45 FE2    4f0       -0.0000   -0.0000    0.0000    0.0000   -0.0000    0.0000   -0.0000   -0.0000    0.0000   -0.0000
       46 FE2    4f1+       0.0000   -0.0000   -0.0000   -0.0000   -0.0000   -0.0000    0.0000   -0.0000   -0.0000   -0.0000
       47 FE2    4f2+      -0.0000    0.0000    0.0000    0.0000   -0.0000   -0.0000   -0.0000    0.0000   -0.0000   -0.0000
       48 FE2    4f3+      -0.0000    0.0000    0.0000   -0.0000    0.0000   -0.0000   -0.0000    0.0000   -0.0000   -0.0000
 
          Orbital           11        12        13        14        15        16        17        18        19        20    
          Energy           -1.6814   -0.9713   -0.9713   -0.8737   -0.5710   -0.5688   -0.5688   -0.5686   -0.5686   -0.5684
          Occ. No.          1.0000    1.0000    1.0000    1.0000    0.0000    0.0000    0.0000    0.0000    0.0000    0.0000
 
        1 O1     1s        -0.0019   -0.0000   -0.0000    0.0001   -0.0001    0.0000   -0.0000   -0.0000    0.0000   -0.0007
        2 O1     2s         0.9994   -0.0000    0.0000    0.0206   -0.0056    0.0000   -0.0000   -0.0000    0.0000   -0.0093
        3 O1     3s        -0.0289    0.0000   -0.0000   -0.0144    0.0014    0.0000   -0.0000   -0.0000    0.0000   -0.0028
        4 O1     2px        0.0000    0.9947    0.0889    0.0000    0.0000    0.0000    0.0000   -0.0043    0.0009    0.0000
        5 O1     3px        0.0000   -0.0503   -0.0045    0.0000    0.0000    0.0000    0.0000   -0.0021    0.0004    0.0000
        6 O1     2py        0.0000   -0.0889    0.9947   -0.0000   -0.0000   -0.0000    0.0000   -0.0009   -0.0043   -0.0000
        7 O1     3py       -0.0000    0.0045   -0.0503    0.0000   -0.0000   -0.0000    0.0000   -0.0004   -0.0021   -0.0000
        8 O1     2pz       -0.0205   -0.0000    0.0000    0.9977    0.0388   -0.0000   -0.0000    0.0000   -0.0000    0.0318
        9 O1     3pz       -0.0048    0.0000   -0.0000   -0.0090    0.0006   -0.0000    0.0000    0.0000   -0.0000    0.0047
       10 O1     3d2-      -0.0000    0.0000   -0.0000    0.0000    0.0000    0.0000    0.0000    0.0000    0.0000   -0.0000
       11 O1     3d1-       0.0000    0.0006   -0.0071    0.0000    0.0000    0.0000    0.0000   -0.0000   -0.0000   -0.0000
       12 O1     3d0       -0.0204    0.0000   -0.0000   -0.0096    0.0003   -0.0000   -0.0000    0.0000   -0.0000    0.0001
       13 O1     3d1+      -0.0000   -0.0071   -0.0006   -0.0000   -0.0000   -0.0000   -0.0000   -0.0000    0.0000   -0.0000
       14 O1     3d2+      -0.0000   -0.0000   -0.0000   -0.0000   -0.0000    0.0000   -0.0000   -0.0000   -0.0000    0.0000
       15 FE2    1s        -0.0000   -0.0000    0.0000    0.0000   -0.0000    0.0000    0.0000    0.0000   -0.0000    0.0000
       16 FE2    2s        -0.0000    0.0000    0.0000    0.0003   -0.0002   -0.0000    0.0000   -0.0000    0.0000   -0.0000
       17 FE2    3s        -0.0002    0.0000    0.0000    0.0014    0.0035    0.0000   -0.0000    0.0000   -0.0000    0.0008
       18 FE2    4s        -0.0008   -0.0000   -0.0000   -0.0172    0.9549   -0.0000   -0.0000    0.0000   -0.0000    0.1675
       19 FE2    5s        -0.0018   -0.0000    0.0000    0.0034   -0.2435    0.0000    0.0000   -0.0000    0.0000   -0.0414
       20 FE2    2px       -0.0000   -0.0000   -0.0000    0.0000   -0.0000   -0.0000   -0.0000   -0.0000    0.0000   -0.0000
       21 FE2    3px        0.0000   -0.0001   -0.0000   -0.0000    0.0000    0.0000    0.0000   -0.0001    0.0000    0.0000
       22 FE2    4px        0.0000   -0.0002   -0.0000   -0.0000    0.0000   -0.0000   -0.0000    0.0006   -0.0001   -0.0000
       23 FE2    5px        0.0000   -0.0002   -0.0000   -0.0000   -0.0000    0.0000    0.0000   -0.0000    0.0000    0.0000
       24 FE2    2py        0.0000    0.0000   -0.0000   -0.0000   -0.0000   -0.0000    0.0000   -0.0000   -0.0000   -0.0000
       25 FE2    3py       -0.0000    0.0000   -0.0001    0.0000    0.0000   -0.0000    0.0000   -0.0000   -0.0001    0.0000
       26 FE2    4py        0.0000    0.0000   -0.0002   -0.0000   -0.0000    0.0000   -0.0000    0.0001    0.0006    0.0000
       27 FE2    5py        0.0000    0.0000   -0.0002    0.0000   -0.0000    0.0000    0.0000   -0.0000   -0.0000   -0.0000
       28 FE2    2pz       -0.0000   -0.0000   -0.0000    0.0001    0.0000    0.0000    0.0000   -0.0000    0.0000    0.0000
       29 FE2    3pz       -0.0002    0.0000   -0.0000    0.0010    0.0000   -0.0000    0.0000    0.0000    0.0000   -0.0000
       30 FE2    4pz       -0.0010   -0.0000   -0.0000   -0.0130   -0.0026    0.0000    0.0000   -0.0000   -0.0000   -0.0007
       31 FE2    5pz       -0.0006   -0.0000    0.0000   -0.0013   -0.0005   -0.0000    0.0000   -0.0000   -0.0000   -0.0001
       32 FE2    3d2-       0.0000   -0.0000   -0.0000    0.0000    0.0000    0.0006    0.9919    0.0000    0.0000   -0.0000
       33 FE2    4d2-      -0.0000   -0.0000   -0.0000   -0.0000    0.0000    0.0001    0.1268    0.0000    0.0000   -0.0000
       34 FE2    3d1-       0.0000   -0.0001    0.0006   -0.0000   -0.0000    0.0000   -0.0000    0.1921    0.9732    0.0000
       35 FE2    4d1-       0.0000   -0.0000    0.0001   -0.0000   -0.0000    0.0000   -0.0000    0.0245    0.1243    0.0000
       36 FE2    3d0        0.0001   -0.0000   -0.0000   -0.0111   -0.1700   -0.0000    0.0000    0.0000   -0.0000    0.9776
       37 FE2    4d0       -0.0003   -0.0000   -0.0000   -0.0042   -0.0226   -0.0000    0.0000    0.0000   -0.0000    0.1245
       38 FE2    3d1+       0.0000    0.0006    0.0001   -0.0000   -0.0000   -0.0000   -0.0000    0.9732   -0.1921   -0.0000
       39 FE2    4d1+       0.0000    0.0001    0.0000    0.0000   -0.0000   -0.0000   -0.0000    0.1243   -0.0245   -0.0000
       40 FE2    3d2+       0.0000    0.0000   -0.0000    0.0000   -0.0000    0.9919   -0.0006    0.0000   -0.0000    0.0000
       41 FE2    4d2+      -0.0000   -0.0000    0.0000   -0.0000   -0.0000    0.1268   -0.0001    0.0000   -0.0000    0.0000
       42 FE2    4f3-       0.0000   -0.0000   -0.0000   -0.0000    0.0000   -0.0000   -0.0000    0.0000    0.0000    0.0000
       43 FE2    4f2-      -0.0000   -0.0000    0.0000    0.0000    0.0000    0.0000    0.0001   -0.0000    0.0000   -0.0000
       44 FE2    4f1-       0.0000   -0.0000    0.0000   -0.0000   -0.0000    0.0000   -0.0000    0.0000    0.0001    0.0000
       45 FE2    4f0        0.0000    0.0000   -0.0000   -0.0002   -0.0000   -0.0000    0.0000    0.0000   -0.0000    0.0001
       46 FE2    4f1+      -0.0000    0.0000    0.0000    0.0000    0.0000   -0.0000    0.0000    0.0001   -0.0000   -0.0000
       47 FE2    4f2+       0.0000    0.0000    0.0000   -0.0000    0.0000    0.0001   -0.0000    0.0000    0.0000    0.0000
       48 FE2    4f3+      -0.0000   -0.0000    0.0000    0.0000    0.0000   -0.0000    0.0000    0.0000   -0.0000   -0.0000
 
          Orbital           21        22        23        24    
          Energy           -0.3898   -0.3898   -0.3871   -0.2233
          Occ. No.          0.0000    0.0000    0.0000    0.0000
 
        1 O1     1s         0.0000    0.0000   -0.0037   -0.0086
        2 O1     2s         0.0000    0.0000   -0.0457   -0.0910
        3 O1     3s         0.0000    0.0000   -0.0084   -0.0182
        4 O1     2px       -0.0055    0.0106    0.0000    0.0000
        5 O1     3px       -0.0005    0.0011    0.0000    0.0000
        6 O1     2py       -0.0106   -0.0055   -0.0000   -0.0000
        7 O1     3py       -0.0011   -0.0005   -0.0000   -0.0000
        8 O1     2pz       -0.0000   -0.0000    0.0727    0.0658
        9 O1     3pz       -0.0000    0.0000    0.0035    0.0169
       10 O1     3d2-      -0.0000    0.0000   -0.0000    0.0000
       11 O1     3d1-      -0.0005   -0.0002   -0.0000   -0.0000
       12 O1     3d0       -0.0000   -0.0000    0.0017    0.0007
       13 O1     3d1+      -0.0002    0.0005   -0.0000    0.0000
       14 O1     3d2+       0.0000    0.0000    0.0000    0.0000
       15 FE2    1s        -0.0000    0.0000    0.0000    0.0000
       16 FE2    2s        -0.0000    0.0000    0.0000    0.0003
       17 FE2    3s        -0.0000    0.0000    0.0002   -0.0020
       18 FE2    4s        -0.0000    0.0000    0.0033    0.2553
       19 FE2    5s         0.0000   -0.0000   -0.0093    0.9794
       20 FE2    2px       -0.0002    0.0003    0.0000    0.0000
       21 FE2    3px        0.0051   -0.0098    0.0000    0.0000
       22 FE2    4px        0.4584   -0.8859    0.0000   -0.0000
       23 FE2    5px        0.0333   -0.0643    0.0000   -0.0000
       24 FE2    2py       -0.0003   -0.0002   -0.0000    0.0000
       25 FE2    3py        0.0098    0.0051    0.0000   -0.0000
       26 FE2    4py        0.8859    0.4584    0.0000    0.0000
       27 FE2    5py        0.0643    0.0333    0.0000    0.0000
       28 FE2    2pz        0.0000    0.0000   -0.0003    0.0000
       29 FE2    3pz       -0.0000   -0.0000    0.0112    0.0006
       30 FE2    4pz       -0.0000   -0.0000    1.0018    0.0240
       31 FE2    5pz       -0.0000   -0.0000    0.0721    0.0005
       32 FE2    3d2-       0.0000   -0.0000   -0.0000    0.0000
       33 FE2    4d2-      -0.0000   -0.0000    0.0000    0.0000
       34 FE2    3d1-      -0.0004   -0.0002    0.0000    0.0000
       35 FE2    4d1-       0.0000    0.0000   -0.0000   -0.0000
       36 FE2    3d0       -0.0000   -0.0000    0.0031    0.0031
       37 FE2    4d0        0.0000   -0.0000   -0.0014   -0.0032
       38 FE2    3d1+      -0.0002    0.0004    0.0000    0.0000
       39 FE2    4d1+       0.0000   -0.0000   -0.0000    0.0000
       40 FE2    3d2+      -0.0000   -0.0000    0.0000    0.0000
       41 FE2    4d2+       0.0000    0.0000    0.0000    0.0000
       42 FE2    4f3-       0.0000   -0.0000    0.0000   -0.0000
       43 FE2    4f2-      -0.0000    0.0000   -0.0000   -0.0000
       44 FE2    4f1-      -0.0000   -0.0000   -0.0000    0.0000
       45 FE2    4f0        0.0000   -0.0000   -0.0001   -0.0001
       46 FE2    4f1+      -0.0000    0.0000   -0.0000   -0.0000
       47 FE2    4f2+       0.0000    0.0000    0.0000    0.0000
       48 FE2    4f3+       0.0000   -0.0000   -0.0000    0.0000
--
 
 
++    Molecular charges:
      ------------------
 
      Mulliken charges per centre and basis function type
      ---------------------------------------------------
 
                            O1                      FE2   
                     alpha        beta       alpha        beta
      1s           1.0000      1.0000      1.0000      1.0000
      2s           0.9986      0.9990      1.0000      1.0000
      2px          0.0000      0.9974      1.0000      1.0000
      2pz          0.9892      0.9975      1.0000      1.0000
      2py          0.0000      0.9974      1.0000      1.0000
      3s           0.0009      0.0011      1.0000      1.0000
      3px          0.0000      0.0026      0.9993      0.9998
      3pz          0.0032      0.0001      0.9993      0.9998
      3py          0.0000      0.0026      0.9993      0.9998
      4s           0.0000      0.0000      0.8612      0.0010
      3d2+        -0.0000      0.0000      0.9814      0.0000
      3d1+         0.0000      0.0001      0.9814      0.0000
      3d0          0.0010      0.0005      0.9814      0.0002
      3d1-         0.0000      0.0001      0.9814      0.0000
      3d2-        -0.0000      0.0000      0.9814      0.0000
      4px          0.0000      0.0000      0.0004      0.0001
      4pz          0.0000      0.0000      0.0067      0.0010
      4py          0.0000      0.0000      0.0004      0.0001
      5s           0.0000      0.0000      0.1389     -0.0003
      4d2+         0.0000      0.0000      0.0186      0.0000
      4d1+         0.0000      0.0000      0.0186      0.0000
      4d0          0.0000      0.0000      0.0192      0.0002
      4d1-         0.0000      0.0000      0.0186      0.0000
      4d2-         0.0000      0.0000      0.0186      0.0000
      5px          0.0000      0.0000      0.0003      0.0000
      5pz          0.0000      0.0000      0.0005      0.0001
      5py          0.0000      0.0000      0.0003      0.0000
      4f3+         0.0000      0.0000      0.0000      0.0000
      4f2+         0.0000      0.0000      0.0000      0.0000
      4f1+         0.0000      0.0000      0.0000      0.0000
      4f0          0.0000      0.0000      0.0000      0.0000
      4f1-         0.0000      0.0000      0.0000      0.0000
      4f2-         0.0000      0.0000      0.0000      0.0000
      4f3-         0.0000      0.0000      0.0000      0.0000
      Total        2.9930      4.9981     15.0070      9.0019
      Total              7.9911                 24.0089
 
      Charge            0.0089                  1.9911
 
      Total electronic charge=   32.000000
 
      Total            charge=    2.000000
--
 
 
  Input file to MOLDEN was generated!
 
 
++    Static properties:
      ------------------
 
 
      LoProp Charges per center
 

                   O1       FE2   
      Nuclear      8.0000  26.0000
      Electronic  -7.9954 -24.0046
 
      Total        0.0046   1.9954
--
 
 
++    Natural Bond Order analysis
      ---------------------------
      Based on LoProp computed density
      -------------------------------------------------------------------------------------
      Atom A       Atom B       Bond Order
      -------------------------------------------------------------------------------------
      NBO located     20.000 core electrons.
      NBO located      3.986 lone pair electrons.
      NBO located      1.001 non-bonded electrons on atom FE2       
      NBO located      1.000 non-bonded electrons on atom FE2       
      NBO located      1.000 non-bonded electrons on atom FE2       
      NBO located      1.000 non-bonded electrons on atom FE2       
      NBO located      1.000 non-bonded electrons on atom FE2       
      NBO located      1.000 non-bonded electrons on atom FE2       
      The remaining    2.013 electrons are to be considered as diffuse
--
 
 
++    Molecular orbitals:
      -------------------
 
      Title: Natural orbitals

      Molecular orbitals for symmetry species 1: a  
 
          Orbital            1         2         3         4         5         6         7         8         9        10    
          Energy         -264.6096  -33.0527  -27.4144  -27.7082  -27.7074  -21.0883   -5.6391   -4.4843   -4.4589   -4.4585
          Occ. No.          2.0000    2.0000    2.0000    2.0000    2.0000    2.0000    2.0000    1.9999    1.9999    1.9999
 
        1 O1     1s         0.0000    0.0088    0.1944    0.0000    0.0000    0.9775   -0.0735   -0.0037    0.0000   -0.0000
        2 O1     2s        -0.0000   -0.0002   -0.0062   -0.0000   -0.0000   -0.0331    0.0002   -0.0059   -0.0000    0.0000
        3 O1     3s         0.0000    0.0000   -0.0002   -0.0000   -0.0000   -0.0005   -0.0004    0.0008    0.0000    0.0000
        4 O1     2px        0.0000   -0.0000    0.0000   -0.0000   -0.0000   -0.0000    0.0000   -0.0000   -0.0000    0.0000
        5 O1     3px       -0.0000   -0.0000   -0.0000   -0.0000   -0.0000    0.0000    0.0000    0.0000    0.0000   -0.0000
        6 O1     2py       -0.0000    0.0000   -0.0000    0.0000   -0.0000    0.0000   -0.0000    0.0000   -0.0000   -0.0000
        7 O1     3py       -0.0000    0.0000   -0.0000    0.0000   -0.0000    0.0000   -0.0000    0.0000    0.0000    0.0000
        8 O1     2pz       -0.0000    0.0000    0.0025   -0.0000   -0.0000   -0.0023    0.0052   -0.0501   -0.0000    0.0000
        9 O1     3pz       -0.0000   -0.0000    0.0002    0.0000    0.0000    0.0002    0.0002   -0.0014    0.0000    0.0000
       10 O1     3d2-       0.0000    0.0000    0.0000    0.0000   -0.0000   -0.0000   -0.0000   -0.0000    0.0000   -0.0000
       11 O1     3d1-      -0.0000   -0.0000   -0.0000   -0.0000    0.0000   -0.0000   -0.0000   -0.0000   -0.0000   -0.0000
       12 O1     3d0        0.0000   -0.0000    0.0000    0.0000    0.0000    0.0002   -0.0000    0.0005    0.0000   -0.0000
       13 O1     3d1+      -0.0000   -0.0000   -0.0000    0.0000    0.0000   -0.0000    0.0000    0.0000   -0.0000    0.0000
       14 O1     3d2+      -0.0000   -0.0000    0.0000   -0.0000    0.0000   -0.0000    0.0000    0.0000    0.0000   -0.0000
       15 FE2    1s         1.0000   -0.0000    0.0000   -0.0000   -0.0000    0.0000    0.0000   -0.0000    0.0000   -0.0000
       16 FE2    2s         0.0000    0.9939    0.0026   -0.0000   -0.0000   -0.0012    0.1104    0.0013   -0.0000   -0.0000
       17 FE2    3s        -0.0000   -0.1101    0.0194    0.0000    0.0000    0.0715    0.9911    0.0082   -0.0000   -0.0000
       18 FE2    4s         0.0000    0.0005   -0.0001   -0.0000   -0.0000   -0.0001   -0.0022    0.0006   -0.0000    0.0000
       19 FE2    5s        -0.0000   -0.0006    0.0001    0.0000    0.0000    0.0004    0.0045   -0.0001    0.0000    0.0000
       20 FE2    2px        0.0000    0.0000   -0.0000    0.9637    0.2016   -0.0000    0.0000    0.0000    0.1130   -0.1338
       21 FE2    3px       -0.0000   -0.0000    0.0000   -0.1714   -0.0359    0.0000   -0.0000   -0.0000    0.6350   -0.7522
       22 FE2    4px        0.0000    0.0000   -0.0000    0.0026    0.0005   -0.0000    0.0000    0.0000   -0.0097    0.0115
       23 FE2    5px       -0.0000   -0.0000    0.0000   -0.0019   -0.0004    0.0000   -0.0000   -0.0000    0.0075   -0.0089
       24 FE2    2py       -0.0000    0.0000    0.0000   -0.2016    0.9637   -0.0000   -0.0000    0.0000    0.1339    0.1130
       25 FE2    3py        0.0000   -0.0000   -0.0000    0.0359   -0.1714    0.0000    0.0000    0.0000    0.7522    0.6350
       26 FE2    4py       -0.0000    0.0000    0.0000   -0.0005    0.0026   -0.0000   -0.0000   -0.0000   -0.0115   -0.0097
       27 FE2    5py       -0.0000   -0.0000   -0.0000    0.0004   -0.0019    0.0000    0.0000    0.0000    0.0089    0.0075
       28 FE2    2pz       -0.0000   -0.0023    0.9650   -0.0000   -0.0000   -0.1917   -0.0068    0.1789    0.0000   -0.0000
       29 FE2    3pz       -0.0000    0.0001   -0.1750    0.0000    0.0000    0.0376   -0.0072    0.9823    0.0000   -0.0000
       30 FE2    4pz       -0.0000   -0.0000    0.0026   -0.0000   -0.0000   -0.0005   -0.0000   -0.0136   -0.0000    0.0000
       31 FE2    5pz       -0.0000   -0.0000   -0.0019    0.0000    0.0000    0.0004   -0.0001    0.0117    0.0000   -0.0000
       32 FE2    3d2-      -0.0000   -0.0000    0.0000    0.0000    0.0000    0.0000    0.0000   -0.0000   -0.0000    0.0000
       33 FE2    4d2-       0.0000   -0.0000   -0.0000   -0.0000    0.0000    0.0000   -0.0000    0.0000    0.0000   -0.0000
       34 FE2    3d1-      -0.0000    0.0000   -0.0000    0.0000   -0.0000    0.0000   -0.0000   -0.0000    0.0001    0.0001
       35 FE2    4d1-      -0.0000   -0.0000    0.0000   -0.0000    0.0000   -0.0000    0.0000    0.0000   -0.0000   -0.0000
       36 FE2    3d0       -0.0000    0.0000   -0.0000    0.0000    0.0000    0.0000   -0.0001    0.0006   -0.0000   -0.0000
       37 FE2    4d0       -0.0000   -0.0000    0.0000    0.0000    0.0000    0.0000    0.0000    0.0002    0.0000    0.0000
       38 FE2    3d1+       0.0000    0.0000    0.0000   -0.0000   -0.0000    0.0000   -0.0000   -0.0000    0.0001   -0.0001
       39 FE2    4d1+       0.0000    0.0000   -0.0000    0.0000    0.0000   -0.0000    0.0000    0.0000   -0.0000    0.0000
       40 FE2    3d2+      -0.0000    0.0000   -0.0000   -0.0000   -0.0000   -0.0000   -0.0000   -0.0000    0.0000   -0.0000
       41 FE2    4d2+      -0.0000   -0.0000    0.0000    0.0000    0.0000    0.0000    0.0000   -0.0000   -0.0000    0.0000
       42 FE2    4f3-       0.0000   -0.0000    0.0000   -0.0000    0.0000    0.0000    0.0000   -0.0000   -0.0000   -0.0000
       43 FE2    4f2-       0.0000    0.0000    0.0000    0.0000   -0.0000   -0.0000   -0.0000   -0.0000    0.0000    0.0000
       44 FE2    4f1-      -0.0000   -0.0000    0.0000   -0.0000    0.0000   -0.0000   -0.0000   -0.0000   -0.0000   -0.0000
       45 FE2    4f0       -0.0000    0.0000    0.0000   -0.0000   -0.0000   -0.0000   -0.0000   -0.0000   -0.0000   -0.0000
       46 FE2    4f1+       0.0000   -0.0000   -0.0000    0.0000    0.0000   -0.0000    0.0000    0.0000   -0.0000    0.0000
       47 FE2    4f2+      -0.0000    0.0000   -0.0000    0.0000    0.0000   -0.0000   -0.0000   -0.0000   -0.0000    0.0000
       48 FE2    4f3+      -0.0000    0.0000    0.0000    0.0000   -0.0000   -0.0000   -0.0000   -0.0000    0.0000    0.0000
 
          Orbital           11        12        13        14        15        16        17        18        19        20    
          Energy           -1.3491   -1.0107   -0.8031   -0.8031   -1.0808   -1.0808   -1.0805   -0.7563   -0.8022   -0.8022
          Occ. No.          1.9976    1.9968    1.0009    1.0009    1.0000    1.0000    1.0000    1.0000    0.9991    0.9991
 
        1 O1     1s        -0.0303   -0.0146   -0.0000   -0.0000   -0.0000   -0.0000   -0.0001   -0.0009   -0.0000   -0.0000
        2 O1     2s        -0.8718   -0.4889   -0.0000   -0.0000   -0.0000   -0.0000   -0.0011   -0.0053   -0.0000   -0.0000
        3 O1     3s         0.0104   -0.0110   -0.0000   -0.0000   -0.0000   -0.0000   -0.0009   -0.0069   -0.0000   -0.0000
        4 O1     2px       -0.0000    0.0000    0.6588   -0.2543   -0.0000    0.0000   -0.0000   -0.0000   -0.6590    0.2538
        5 O1     3px       -0.0000    0.0000   -0.0327    0.0126    0.0000   -0.0000   -0.0000   -0.0000    0.0338   -0.0130
        6 O1     2py        0.0000   -0.0000    0.2543    0.6588   -0.0000    0.0000    0.0000    0.0000   -0.2538   -0.6590
        7 O1     3py        0.0000   -0.0000   -0.0126   -0.0327    0.0000   -0.0000   -0.0000   -0.0000    0.0130    0.0338
        8 O1     2pz       -0.4880    0.8667   -0.0000   -0.0000   -0.0000   -0.0000   -0.0111   -0.0343   -0.0000   -0.0000
        9 O1     3pz       -0.0048    0.0218   -0.0000   -0.0000   -0.0000   -0.0000   -0.0004   -0.0020   -0.0000   -0.0000
       10 O1     3d2-      -0.0000    0.0000    0.0000   -0.0000    0.0000   -0.0000    0.0000    0.0000   -0.0000    0.0000
       11 O1     3d1-       0.0000    0.0000   -0.0018   -0.0047    0.0000   -0.0000    0.0000    0.0000    0.0018    0.0046
       12 O1     3d0        0.0003   -0.0101    0.0000    0.0000    0.0000    0.0000    0.0001    0.0005    0.0000    0.0000
       13 O1     3d1+       0.0000   -0.0000   -0.0047    0.0018    0.0000    0.0000    0.0000    0.0000    0.0046   -0.0018
       14 O1     3d2+      -0.0000   -0.0000   -0.0000   -0.0000    0.0000    0.0000   -0.0000   -0.0000    0.0000    0.0000
       15 FE2    1s        -0.0000    0.0000   -0.0000    0.0000   -0.0000    0.0000   -0.0000    0.0000    0.0000   -0.0000
       16 FE2    2s        -0.0001   -0.0002    0.0000    0.0000    0.0000    0.0000   -0.0000    0.0002    0.0000    0.0000
       17 FE2    3s        -0.0003   -0.0031   -0.0000   -0.0000   -0.0000   -0.0000   -0.0001   -0.0039   -0.0000   -0.0000
       18 FE2    4s         0.0088   -0.0120   -0.0000   -0.0000   -0.0000   -0.0000    0.0005   -0.9282   -0.0000   -0.0000
       19 FE2    5s         0.0002    0.0016    0.0000    0.0000    0.0000    0.0000    0.0003    0.3722    0.0000    0.0000
       20 FE2    2px        0.0000    0.0000   -0.0000    0.0000   -0.0000   -0.0000    0.0000    0.0000    0.0000   -0.0000
       21 FE2    3px       -0.0000    0.0000   -0.0002    0.0001   -0.0000   -0.0000    0.0000   -0.0000   -0.0000    0.0000
       22 FE2    4px        0.0000   -0.0000   -0.0003    0.0001   -0.0000    0.0000    0.0000   -0.0000   -0.0001    0.0000
       23 FE2    5px       -0.0000   -0.0000   -0.0002    0.0001    0.0000   -0.0000   -0.0000    0.0000    0.0001   -0.0000
       24 FE2    2py       -0.0000    0.0000   -0.0000   -0.0000    0.0000   -0.0000    0.0000    0.0000    0.0000    0.0000
       25 FE2    3py       -0.0000    0.0000   -0.0001   -0.0002   -0.0000   -0.0000   -0.0000    0.0000   -0.0000   -0.0000
       26 FE2    4py        0.0000   -0.0000   -0.0001   -0.0003    0.0000    0.0000    0.0000    0.0000   -0.0000   -0.0001
       27 FE2    5py       -0.0000    0.0000   -0.0001   -0.0002   -0.0000   -0.0000    0.0000    0.0000    0.0000    0.0001
       28 FE2    2pz       -0.0037    0.0051   -0.0000   -0.0000    0.0000   -0.0000    0.0000   -0.0000    0.0000   -0.0000
       29 FE2    3pz       -0.0299    0.0415    0.0000    0.0000    0.0000    0.0000    0.0001    0.0001    0.0000    0.0000
       30 FE2    4pz        0.0163   -0.0280    0.0000    0.0000    0.0000    0.0000    0.0013    0.0132    0.0000    0.0000
       31 FE2    5pz        0.0008   -0.0009    0.0000    0.0000    0.0000    0.0000    0.0001    0.0005    0.0000    0.0000
       32 FE2    3d2-      -0.0000    0.0000   -0.0000   -0.0000    0.0672   -0.9884    0.0000    0.0000   -0.0000   -0.0000
       33 FE2    4d2-       0.0000   -0.0000    0.0000    0.0000   -0.0092    0.1359   -0.0000   -0.0000    0.0000    0.0000
       34 FE2    3d1-       0.0000   -0.0000    0.2523    0.6536    0.0000   -0.0000   -0.0000   -0.0000    0.2517    0.6536
       35 FE2    4d1-       0.0000   -0.0000   -0.0347   -0.0898   -0.0000    0.0000    0.0000    0.0000   -0.0347   -0.0901
       36 FE2    3d0        0.0053   -0.0091   -0.0000   -0.0000   -0.0000   -0.0000   -0.9906    0.0000   -0.0000   -0.0000
       37 FE2    4d0        0.0025   -0.0048    0.0000    0.0000    0.0000    0.0000    0.1366    0.0017    0.0000    0.0000
       38 FE2    3d1+       0.0000   -0.0000    0.6536   -0.2523   -0.0000   -0.0000   -0.0000   -0.0000    0.6536   -0.2517
       39 FE2    4d1+      -0.0000    0.0000   -0.0898    0.0347    0.0000    0.0000    0.0000    0.0000   -0.0901    0.0347
       40 FE2    3d2+      -0.0000    0.0000    0.0000   -0.0000    0.9884    0.0672   -0.0000   -0.0000   -0.0000   -0.0000
       41 FE2    4d2+       0.0000   -0.0000   -0.0000    0.0000   -0.1359   -0.0092    0.0000    0.0000    0.0000    0.0000
       42 FE2    4f3-      -0.0000   -0.0000   -0.0000   -0.0000   -0.0000    0.0000    0.0000   -0.0000    0.0000    0.0000
       43 FE2    4f2-       0.0000   -0.0000   -0.0000    0.0000    0.0000   -0.0000    0.0000    0.0000   -0.0000   -0.0000
       44 FE2    4f1-       0.0000   -0.0000    0.0000    0.0000   -0.0000   -0.0000   -0.0000   -0.0000    0.0000    0.0000
       45 FE2    4f0        0.0001   -0.0002    0.0000    0.0000   -0.0000    0.0000   -0.0000    0.0000    0.0000    0.0000
       46 FE2    4f1+       0.0000    0.0000    0.0000   -0.0000   -0.0000   -0.0000   -0.0000   -0.0000    0.0000   -0.0000
       47 FE2    4f2+       0.0000   -0.0000    0.0000    0.0000    0.0000    0.0000   -0.0000   -0.0000   -0.0000    0.0000
       48 FE2    4f3+       0.0000    0.0000    0.0000    0.0000   -0.0000   -0.0000    0.0000    0.0000    0.0000   -0.0000
 
          Orbital           21        22        23        24        25        26        27        28        29        30    
          Energy            0.2377    1.0519    0.9521    0.9521    1.0925   -0.2047    0.8575   -0.0307   -0.0307    0.6221
          Occ. No.          0.0032    0.0024    0.0001    0.0001    0.0001    0.0000    0.0000    0.0000    0.0000    0.0000
 
        1 O1     1s        -0.0018    0.0010    0.0000    0.0000   -0.0034    0.0087   -0.0056   -0.0000   -0.0000    0.0041
        2 O1     2s        -0.0286    0.0132    0.0000    0.0000   -0.0390    0.0946   -0.0644   -0.0000   -0.0000    0.0478
        3 O1     3s         0.3323    0.6246    0.0000    0.0000   -0.0541    0.1721   -0.6355   -0.0000   -0.0000   -0.3465
        4 O1     2px        0.0000   -0.0000    0.0013   -0.0065   -0.0000   -0.0000    0.0000   -0.0029   -0.0212   -0.0000
        5 O1     3px       -0.0000    0.0000    0.0040   -0.0202   -0.0000   -0.0000    0.0000   -0.0134   -0.0996   -0.0000
        6 O1     2py       -0.0000    0.0000   -0.0065   -0.0013    0.0000    0.0000    0.0000   -0.0212    0.0029    0.0000
        7 O1     3py        0.0000   -0.0000   -0.0202   -0.0040    0.0000    0.0000    0.0000   -0.0996    0.0134    0.0000
        8 O1     2pz        0.0722   -0.0157   -0.0000   -0.0000    0.0173   -0.0670    0.0703    0.0000    0.0000   -0.0661
        9 O1     3pz       -0.6745    0.3846   -0.0000   -0.0000   -0.1763   -0.1715    0.4450    0.0000    0.0000   -0.5249
       10 O1     3d2-       0.0000   -0.0000    0.0000   -0.0000    0.0000   -0.0000    0.0000    0.0000    0.0000   -0.0000
       11 O1     3d1-      -0.0000   -0.0000    0.0018    0.0004    0.0000   -0.0000   -0.0000    0.0162   -0.0022   -0.0000
       12 O1     3d0        0.3044    0.6348    0.0000   -0.0000   -0.0237    0.0186    0.4938    0.0000    0.0000    0.4744
       13 O1     3d1+       0.0000    0.0000   -0.0004    0.0018   -0.0000   -0.0000    0.0000    0.0022    0.0162   -0.0000
       14 O1     3d2+       0.0000    0.0000    0.0000   -0.0000    0.0000   -0.0000   -0.0000    0.0000    0.0000   -0.0000
       15 FE2    1s        -0.0003    0.0002   -0.0000   -0.0000   -0.0001   -0.0001    0.0002    0.0000    0.0000   -0.0002
       16 FE2    2s        -0.0023    0.0011   -0.0000   -0.0000   -0.0006   -0.0006    0.0016    0.0000    0.0000   -0.0017
       17 FE2    3s        -0.0123    0.0057   -0.0000   -0.0000   -0.0030    0.0001    0.0085    0.0000    0.0000   -0.0086
       18 FE2    4s        -0.0608    0.0198   -0.0000    0.0000   -0.0122   -0.4060    0.0934    0.0000    0.0000   -0.0965
       19 FE2    5s         0.0571   -0.0094   -0.0000   -0.0000    0.0312   -0.9545    0.0636    0.0000    0.0000   -0.0671
       20 FE2    2px        0.0000   -0.0000    0.0000   -0.0002   -0.0000    0.0000    0.0000   -0.0000   -0.0000    0.0000
       21 FE2    3px        0.0000   -0.0000    0.0035   -0.0176    0.0000   -0.0000   -0.0000    0.0010    0.0071    0.0000
       22 FE2    4px        0.0000   -0.0000    0.0993   -0.5051    0.0000   -0.0000   -0.0000    0.1151    0.8521    0.0000
       23 FE2    5px        0.0000    0.0000   -0.1653    0.8413   -0.0000   -0.0000   -0.0000    0.0694    0.5141    0.0000
       24 FE2    2py        0.0000   -0.0000   -0.0002   -0.0000   -0.0000    0.0000    0.0000   -0.0000    0.0000   -0.0000
       25 FE2    3py       -0.0000   -0.0000   -0.0176   -0.0035   -0.0000   -0.0000   -0.0000    0.0071   -0.0010   -0.0000
       26 FE2    4py        0.0000   -0.0000   -0.5051   -0.0993   -0.0000    0.0000   -0.0000    0.8521   -0.1151   -0.0000
       27 FE2    5py        0.0000    0.0000    0.8413    0.1653    0.0000    0.0000   -0.0000    0.5141   -0.0694   -0.0000
       28 FE2    2pz       -0.0003    0.0001    0.0000   -0.0000   -0.0003   -0.0001    0.0002    0.0000    0.0000   -0.0002
       29 FE2    3pz       -0.0006   -0.0010    0.0000    0.0000   -0.0183   -0.0017    0.0096    0.0000    0.0000   -0.0099
       30 FE2    4pz        0.4207   -0.2424    0.0000    0.0000   -0.3932    0.0340    0.5537    0.0000    0.0000   -0.6087
       31 FE2    5pz        0.0083    0.0043   -0.0000   -0.0000    0.8959    0.0231    0.3338    0.0000    0.0000   -0.3584
       32 FE2    3d2-       0.0000   -0.0000    0.0000   -0.0000    0.0000   -0.0000    0.0000   -0.0000   -0.0000   -0.0000
       33 FE2    4d2-       0.0000   -0.0000    0.0000    0.0000    0.0000   -0.0000    0.0000   -0.0000   -0.0000   -0.0000
       34 FE2    3d1-      -0.0000    0.0000   -0.0001   -0.0000   -0.0000    0.0000   -0.0000    0.0033   -0.0004   -0.0000
       35 FE2    4d1-       0.0000   -0.0000   -0.0005   -0.0001    0.0000    0.0000   -0.0000    0.0200   -0.0027    0.0000
       36 FE2    3d0       -0.0023    0.0008    0.0000   -0.0000   -0.0002   -0.0048    0.0345    0.0000    0.0000    0.0090
       37 FE2    4d0        0.0340   -0.0039   -0.0000   -0.0000    0.0123   -0.0188    0.2107    0.0000    0.0000    0.1050
       38 FE2    3d1+      -0.0000    0.0000    0.0000   -0.0001    0.0000   -0.0000   -0.0000    0.0004    0.0033   -0.0000
       39 FE2    4d1+      -0.0000    0.0000    0.0001   -0.0005   -0.0000   -0.0000   -0.0000    0.0027    0.0200   -0.0000
       40 FE2    3d2+       0.0000   -0.0000   -0.0000    0.0000   -0.0000    0.0000   -0.0000   -0.0000   -0.0000    0.0000
       41 FE2    4d2+       0.0000   -0.0000   -0.0000    0.0000   -0.0000    0.0000   -0.0000   -0.0000   -0.0000    0.0000
       42 FE2    4f3-      -0.0000    0.0000   -0.0000    0.0000    0.0000    0.0000    0.0000    0.0000    0.0000   -0.0000
       43 FE2    4f2-       0.0000   -0.0000    0.0000    0.0000    0.0000   -0.0000    0.0000    0.0000    0.0000   -0.0000
       44 FE2    4f1-       0.0000   -0.0000    0.0000    0.0000    0.0000   -0.0000   -0.0000    0.0012   -0.0002   -0.0000
       45 FE2    4f0        0.0017   -0.0003   -0.0000    0.0000    0.0007   -0.0017    0.0135    0.0000    0.0000    0.0056
       46 FE2    4f1+      -0.0000    0.0000   -0.0000    0.0000   -0.0000    0.0000   -0.0000    0.0002    0.0012    0.0000
       47 FE2    4f2+      -0.0000   -0.0000   -0.0000    0.0000    0.0000    0.0000    0.0000   -0.0000   -0.0000   -0.0000
       48 FE2    4f3+       0.0000   -0.0000    0.0000    0.0000   -0.0000   -0.0000   -0.0000    0.0000    0.0000    0.0000
 
          Orbital           31        32        33        34        35        36        37        38        39        40    
          Energy            0.3639    0.3262    0.3396    0.2838    0.2861    0.2718    0.2755    3.0984    2.0374    1.8976
          Occ. No.          0.0000    0.0000    0.0000    0.0000    0.0000    0.0000    0.0000    0.0000    0.0000    0.0000
 
        1 O1     1s         0.0028   -0.0000   -0.0000   -0.0000    0.0000   -0.0000    0.0000   -0.0001   -0.0000   -0.0000
        2 O1     2s         0.0357   -0.0000   -0.0000   -0.0000    0.0000   -0.0000    0.0000   -0.0007   -0.0000   -0.0000
        3 O1     3s        -0.0790    0.0000    0.0000    0.0000   -0.0000   -0.0000    0.0000    0.0000   -0.0000    0.0000
        4 O1     2px        0.0000    0.0482    0.0033   -0.0056   -0.0208    0.0003    0.0003    0.0000   -0.0049    0.0081
        5 O1     3px        0.0000    0.9844    0.0790   -0.0755   -0.1309    0.0018    0.0020    0.0000   -0.0263    0.0380
        6 O1     2py        0.0000    0.0052   -0.0484    0.0194   -0.0003   -0.0001    0.0004    0.0000   -0.0095   -0.0044
        7 O1     3py        0.0000    0.0901   -0.9851    0.1024    0.0303   -0.0021    0.0033    0.0000   -0.0808   -0.0331
        8 O1     2pz       -0.0505    0.0000    0.0000    0.0000   -0.0000   -0.0000    0.0000   -0.0003   -0.0000    0.0000
        9 O1     3pz       -0.1368    0.0000    0.0000    0.0000   -0.0000   -0.0000    0.0000   -0.0015   -0.0000    0.0000
       10 O1     3d2-       0.0000    0.0006    0.0001   -0.0004   -0.0061    0.0037   -0.0082    0.0019    0.2520    0.2771
       11 O1     3d1-       0.0000   -0.0149    0.0995   -0.0298    0.0045   -0.0073    0.0267    0.0004   -0.7526   -0.3746
       12 O1     3d0        0.1901   -0.0000   -0.0000   -0.0000    0.0000    0.0000   -0.0000    0.0004    0.0000   -0.0000
       13 O1     3d1+       0.0000   -0.0438    0.0037    0.0031    0.0366   -0.0003    0.0147    0.0007   -0.4527    0.8634
       14 O1     3d2+       0.0000   -0.0002   -0.0004    0.0002    0.0035    0.0008   -0.0032    0.0007   -0.0390    0.0102
       15 FE2    1s        -0.0001    0.0000    0.0000    0.0000   -0.0000   -0.0000    0.0000   -0.0000   -0.0000    0.0000
       16 FE2    2s        -0.0005    0.0000    0.0000    0.0000   -0.0000   -0.0000    0.0000   -0.0000   -0.0000    0.0000
       17 FE2    3s        -0.0024    0.0000    0.0000    0.0000   -0.0000   -0.0000    0.0000   -0.0000   -0.0000    0.0000
       18 FE2    4s        -0.0240    0.0000    0.0000    0.0000   -0.0000   -0.0000    0.0000   -0.0001   -0.0000    0.0000
       19 FE2    5s        -0.0135    0.0000    0.0000    0.0000   -0.0000    0.0000   -0.0000    0.0002    0.0000    0.0000
       20 FE2    2px       -0.0000   -0.0001   -0.0000    0.0000    0.0000   -0.0000   -0.0000   -0.0000    0.0000   -0.0000
       21 FE2    3px       -0.0000   -0.0019   -0.0002    0.0001    0.0001   -0.0000   -0.0000   -0.0000    0.0001   -0.0001
       22 FE2    4px       -0.0000    0.0069   -0.0000   -0.0021   -0.0132    0.0002    0.0000   -0.0000    0.0014   -0.0032
       23 FE2    5px       -0.0000    0.0044    0.0001   -0.0010   -0.0055    0.0001    0.0000   -0.0000    0.0003   -0.0009
       24 FE2    2py        0.0000   -0.0000    0.0001   -0.0000   -0.0000    0.0000   -0.0000   -0.0000    0.0000    0.0000
       25 FE2    3py       -0.0000   -0.0002    0.0019   -0.0001   -0.0001    0.0000   -0.0000   -0.0000    0.0002    0.0001
       26 FE2    4py       -0.0000    0.0014   -0.0075    0.0129   -0.0014    0.0000   -0.0001   -0.0000    0.0024    0.0013
       27 FE2    5py       -0.0000    0.0007   -0.0046    0.0054   -0.0005    0.0000   -0.0000   -0.0000    0.0005    0.0003
       28 FE2    2pz       -0.0001    0.0000    0.0000    0.0000   -0.0000   -0.0000    0.0000   -0.0000   -0.0000    0.0000
       29 FE2    3pz       -0.0012    0.0000    0.0000    0.0000   -0.0000   -0.0000    0.0000   -0.0000   -0.0000    0.0000
       30 FE2    4pz        0.0189   -0.0000   -0.0000   -0.0000    0.0000    0.0000   -0.0000    0.0000    0.0000   -0.0000
       31 FE2    5pz        0.0090   -0.0000   -0.0000   -0.0000    0.0000    0.0000   -0.0000    0.0000    0.0000   -0.0000
       32 FE2    3d2-      -0.0000    0.0001   -0.0001   -0.0000   -0.0007   -0.0049   -0.1360   -0.0000   -0.0053   -0.0003
       33 FE2    4d2-      -0.0000    0.0005   -0.0006   -0.0002   -0.0052   -0.0356   -0.9891   -0.0001   -0.0383   -0.0020
       34 FE2    3d1-      -0.0000   -0.0079   -0.0017   -0.1355    0.0176   -0.0001   -0.0001   -0.0000    0.0019    0.0003
       35 FE2    4d1-      -0.0000   -0.0550   -0.0363   -0.9824    0.1288   -0.0010   -0.0010   -0.0000    0.0132    0.0022
       36 FE2    3d0       -0.1356    0.0000    0.0000    0.0000   -0.0000    0.0000   -0.0000    0.0085    0.0000    0.0000
       37 FE2    4d0       -0.9741    0.0000    0.0000    0.0000   -0.0000    0.0000   -0.0000    0.0615    0.0000    0.0000
       38 FE2    3d1+       0.0000    0.0061    0.0064    0.0172    0.1355   -0.0021   -0.0007    0.0000    0.0020   -0.0020
       39 FE2    4d1+       0.0000    0.0686    0.0487    0.1232    0.9814   -0.0149   -0.0050    0.0000    0.0143   -0.0146
       40 FE2    3d2+       0.0000   -0.0000    0.0001   -0.0001   -0.0020   -0.1361    0.0048    0.0001    0.0015    0.0005
       41 FE2    4d2+       0.0000   -0.0003    0.0007   -0.0008   -0.0148   -0.9898    0.0352    0.0004    0.0107    0.0037
       42 FE2    4f3-      -0.0001   -0.0001   -0.0014   -0.0001    0.0008    0.0057   -0.0091   -0.0134    0.2432    0.0418
       43 FE2    4f2-       0.0000    0.0010   -0.0004   -0.0004   -0.0053    0.0002   -0.0012    0.0007    0.1157    0.1006
       44 FE2    4f1-       0.0000   -0.0013    0.0074   -0.0026    0.0003   -0.0018    0.0088    0.0002   -0.1517   -0.0039
       45 FE2    4f0       -0.0616    0.0000   -0.0000   -0.0000   -0.0000   -0.0004    0.0001   -0.9979   -0.0009    0.0000
       46 FE2    4f1+      -0.0000   -0.0023    0.0001    0.0016    0.0043   -0.0019   -0.0145   -0.0007    0.1488    0.1465
       47 FE2    4f2+       0.0000   -0.0009   -0.0011   -0.0002   -0.0002   -0.0003    0.0116    0.0099    0.0202    0.0013
       48 FE2    4f3+       0.0001    0.0006   -0.0004    0.0001    0.0003    0.0083   -0.0195    0.0126    0.1894   -0.0316
 
          Orbital           41        42        43        44        45        46        47    
          Energy            1.8603    3.0072    3.0972    3.0569    1.9569    3.0794    3.0941
          Occ. No.          0.0000    0.0000    0.0000    0.0000    0.0000    0.0000    0.0000
 
        1 O1     1s        -0.0000    0.0000   -0.0000   -0.0000   -0.0000    0.0000   -0.0000
        2 O1     2s        -0.0000    0.0000   -0.0000   -0.0000   -0.0000    0.0000   -0.0000
        3 O1     3s         0.0000   -0.0000   -0.0000    0.0000    0.0000    0.0000    0.0000
        4 O1     2px       -0.0010   -0.0009    0.0001   -0.0002   -0.0011    0.0005   -0.0008
        5 O1     3px       -0.0043   -0.0012    0.0006   -0.0013   -0.0053    0.0035   -0.0033
        6 O1     2py        0.0046    0.0033    0.0004    0.0023    0.0007    0.0014   -0.0019
        7 O1     3py        0.0374    0.0257    0.0034    0.0184    0.0051    0.0104   -0.0065
        8 O1     2pz        0.0000   -0.0000   -0.0000    0.0000    0.0000   -0.0000    0.0000
        9 O1     3pz        0.0000   -0.0000   -0.0000    0.0000    0.0000   -0.0000    0.0000
       10 O1     3d2-       0.8168   -0.0660   -0.0904   -0.0603    0.4083   -0.0554    0.0347
       11 O1     3d1-       0.3671    0.2554    0.0354    0.1843    0.0565    0.1146   -0.0788
       12 O1     3d0       -0.0000    0.0000    0.0000   -0.0000   -0.0000   -0.0000   -0.0000
       13 O1     3d1+      -0.1005   -0.0063    0.0037   -0.0139   -0.1188    0.0374   -0.0630
       14 O1     3d2+      -0.4253    0.0993    0.0024    0.0575    0.8571    0.0744    0.0159
       15 FE2    1s         0.0000   -0.0000   -0.0000    0.0000    0.0000   -0.0000    0.0000
       16 FE2    2s         0.0000   -0.0000   -0.0000    0.0000    0.0000   -0.0000    0.0000
       17 FE2    3s         0.0000   -0.0000   -0.0000    0.0000    0.0000   -0.0000    0.0000
       18 FE2    4s         0.0000    0.0000   -0.0000    0.0000    0.0000   -0.0000    0.0000
       19 FE2    5s        -0.0000    0.0000    0.0000   -0.0000   -0.0000   -0.0000   -0.0000
       20 FE2    2px        0.0000    0.0000   -0.0000    0.0000    0.0000   -0.0000    0.0000
       21 FE2    3px        0.0000    0.0000   -0.0000    0.0000    0.0000   -0.0000    0.0000
       22 FE2    4px        0.0003   -0.0004    0.0000    0.0000    0.0004   -0.0001    0.0002
       23 FE2    5px        0.0001   -0.0002    0.0000   -0.0000    0.0001   -0.0000    0.0000
       24 FE2    2py       -0.0000   -0.0000   -0.0000   -0.0000   -0.0000   -0.0000    0.0000
       25 FE2    3py       -0.0001   -0.0001   -0.0000   -0.0000   -0.0000   -0.0000    0.0000
       26 FE2    4py       -0.0012   -0.0008   -0.0001   -0.0006   -0.0002   -0.0004   -0.0002
       27 FE2    5py       -0.0003   -0.0002   -0.0000   -0.0001   -0.0000   -0.0001   -0.0001
       28 FE2    2pz        0.0000   -0.0000   -0.0000    0.0000    0.0000   -0.0000    0.0000
       29 FE2    3pz        0.0000    0.0000   -0.0000    0.0000    0.0000   -0.0000    0.0000
       30 FE2    4pz       -0.0000    0.0000    0.0000   -0.0000   -0.0000   -0.0000    0.0000
       31 FE2    5pz       -0.0000    0.0000    0.0000   -0.0000   -0.0000   -0.0000    0.0000
       32 FE2    3d2-       0.0002   -0.0018    0.0000    0.0000   -0.0001    0.0015    0.0001
       33 FE2    4d2-       0.0012   -0.0134    0.0001    0.0004   -0.0011    0.0110    0.0008
       34 FE2    3d1-      -0.0007   -0.0004   -0.0001   -0.0003   -0.0001   -0.0003   -0.0001
       35 FE2    4d1-      -0.0045   -0.0027   -0.0007   -0.0023   -0.0004   -0.0022   -0.0005
       36 FE2    3d0        0.0000   -0.0000    0.0002    0.0000    0.0000    0.0000    0.0000
       37 FE2    4d0        0.0000   -0.0000    0.0012    0.0000    0.0000    0.0000    0.0000
       38 FE2    3d1+       0.0009   -0.0009   -0.0002    0.0005    0.0003   -0.0003    0.0001
       39 FE2    4d1+       0.0067   -0.0061   -0.0015    0.0038    0.0019   -0.0019    0.0010
       40 FE2    3d2+       0.0001   -0.0001   -0.0001   -0.0000   -0.0004    0.0000   -0.0000
       41 FE2    4d2+       0.0008   -0.0006   -0.0007   -0.0002   -0.0029    0.0003   -0.0002
       42 FE2    4f3-       0.0682    0.1075    0.6876    0.0902   -0.1367    0.5167    0.0721
       43 FE2    4f2-       0.0005   -0.0997   -0.0605    0.9674    0.0002   -0.0066   -0.0005
       44 FE2    4f1-      -0.0011   -0.1243   -0.0079   -0.0005   -0.0002   -0.0003    0.9798
       45 FE2    4f0       -0.0000    0.0000   -0.0208    0.0000   -0.0000   -0.0000   -0.0000
       46 FE2    4f1+       0.0003    0.9053   -0.0202    0.0000    0.0004   -0.0001    0.1254
       47 FE2    4f2+      -0.0003   -0.0850   -0.5026   -0.0695    0.0005    0.8355   -0.0188
       48 FE2    4f3+      -0.0295    0.2364   -0.5104    0.0990   -0.2502   -0.1073    0.0834
--
 
 
++    Molecular properties:
      ---------------------
 
      Charge (e):
                      =    2.0000
      Dipole Moment (Debye):
      Origin of the operator (Ang)=    0.0000    0.0000    0.0000
                   X= -1.8194E-12               Y=  1.3396E-12               Z= -1.1954E+01           Total=  1.1954E+01
      Center of Charge (Ang)
                     X=   -0.00000000               Y=    0.00000000               Z=   -1.24438409
      Quadrupole Moment (Debye*Ang):
      Origin of the operator (Ang)=    0.0000    0.0000   -0.3598
                  XX= -1.4238E+01              XY=  2.3299E-13              XZ= -8.2212E-12              YY= -1.4238E+01
                  YZ=  2.4700E-11              ZZ= -5.7724E+00
      In traceless form (Debye*Ang)
                  XX= -4.2327E+00              XY=  3.4949E-13              XZ= -1.2332E-11              YY= -4.2327E+00
                  YZ=  3.7050E-11              ZZ=  8.4655E+00
--
 
 
  Input file to MOLDEN was generated!
 
 ###############################################################################
 ###############################################################################
 ###                                                                         ###
 ###                                                                         ###
 ###    RunFile label nBas                                                   ###
 ###    was used       86 times                                              ###
 ###                                                                         ###
 ###                                                                         ###
 ###############################################################################
 ###############################################################################
--- Stop Module: scf at Sun Dec 22 22:09:33 2024 /rc=_RC_ALL_IS_WELL_ ---
*** files: 4.18.LprOrb 4.18.LoProp.molden 4.18.scf.molden 4.18.scf.h5 4.18.UhfOrb 4.18.UnaOrb xmldump
    saved to directory /home/grierjones/DDCASPT2/iron_oxo_DDCASPT2/cluster/4.18

>>> COPY /tmp/4.18/4.18.scf.h5 /home/grierjones/DDCASPT2/iron_oxo_DDCASPT2/cluster/4.18/

*** symbolic link created: INPORB -> 4.18.UnaOrb
--- Start Module: rasscf at Sun Dec 22 22:09:33 2024 ---
 
()()()()()()()()()()()()()()()()()()()()()()()()()()()()()()()()()()()()()()()()()()()()()()()()()()

                                              &RASSCF

                                   only a single process is used
                       available to each process: 2.0 GB of memory, 1 thread?
()()()()()()()()()()()()()()()()()()()()()()()()()()()()()()()()()()()()()()()()()()()()()()()()()()
 
 ###############################################################################
 ###############################################################################
 ###                                                                         ###
 ###                                                                         ###
 ###    LUMORB input error.                                                  ###
 ###                                                                         ###
 ###                                                                         ###
 ###############################################################################
 ###############################################################################
  Keyword LUMORB used with file name StartOrbFile=
 /home/grierjones/DDCASPT2/iron_oxo_DDCASPT2/cluster/4.16/4.16.RasOrb           
                                                  
  but that file cannot be used. Perhaps it does
  not exist?
 
 *************** WARNING ****************
 ###############################################################################
 ###############################################################################
 ###                                                                         ###
 ###                                                                         ###
 ###    Too many macro-iterations.                                           ###
 ###                                                                         ###
 ###                                                                         ###
 ###############################################################################
 ###############################################################################
 Too many macro-iterations requested.
 Reset to maximum, new MAXIT=     200
 ****************************************
 
 *************** WARNING ****************
 ###############################################################################
 ###############################################################################
 ###                                                                         ###
 ###                                                                         ###
 ###    Too many SX-iterations.                                              ###
 ###                                                                         ###
 ###                                                                         ###
 ###############################################################################
 ###############################################################################
 Too many SX-iterations requested.
 Reset to maximum, new ITMAX=     100
 ****************************************
 
      Header of the ONEINT file:
      --------------------------
      
      Integrals generated by seward 4.2.0  , Sun Dec 22 22:09:31 2024
 
 
      OrdInt status: non-squared
 
 
      Cartesian coordinates in Angstrom:
      -----------------------------------------------------
      No.  Label        X            Y            Z        
      -----------------------------------------------------
       1   O1         0.00000000   0.00000000   2.88878000
       2   FE2        0.00000000   0.00000000  -1.28878000
      -----------------------------------------------------
      Nuclear repulsion energy =   26.34764308
 
++    Wave function specifications:
      -----------------------------
 
      Number of closed shell electrons          22
      Number of electrons in active shells      10
      Max number of holes in RAS1 space          0
      Max nr of electrons in RAS3 space          0
      Number of inactive orbitals               11
      Number of active orbitals                 14
      Number of secondary orbitals              23
      Spin quantum number                      2.0
      State symmetry                             1
--
 
++    Orbital specifications:
      -----------------------
 
      Symmetry species                           1
                                                 a
      Frozen orbitals                            0
      Inactive orbitals                         11
      Active orbitals                           14
      RAS1 orbitals                              0
      RAS2 orbitals                             14
      RAS3 orbitals                              0
      Secondary orbitals                        23
      Deleted orbitals                           0
      Number of basis functions                 48
--
 
++    CI expansion specifications:
      ----------------------------
 
      Number of CSFs                        975975
      Number of determinants               1249248
      Number of root(s) required                 1
      Root chosen for geometry opt.              1
      CI root used                               1
         
      highest root included in the CI            1
      max. size of the explicit Hamiltonian    200
--
 
++    Optimization specifications:
      ----------------------------
 
      RASSCF algorithm: Conventional
      Maximum number of macro iterations       200
      Maximum number of SX iterations          100
      Threshold for RASSCF energy            0.100E-07
      Threshold for max MO rotation          0.100E+00
      Threshold for max BLB element          0.100E-03
      Level shift parameter                  0.500E+00
      Make Quasi-Newton update
--
 
 ###############################################################################
 ###############################################################################
 ###                                                                         ###
 ###                                                                         ###
 ###    Location: rdVec_                                                     ###
 ###    File: /home/grierjones/DDCASPT2/iron_oxo_DDCASPT2/cluster/4.16/4.16.RasOrb\n\n\n
 ###    ile: /home/grierjones/DDCASPT2/iron_oxo_DDCASPT2/cluster/4.16/4.16.RasOrb\n\n\n
 ###    le: /home/grierjones/DDCASPT2/iron_oxo_DDCASPT2/cluster/4.16/4.16.RasOrb\n\n\n
 ###    e: /home/grierjones/DDCASPT2/iron_oxo_DDCASPT2/cluster/4.16/4.16.RasOrb\n\n\n
 ###    : /home/grierjones/DDCASPT2/iron_oxo_DDCASPT2/cluster/4.16/4.16.RasOrb\n\n\n
 ###     /home/grierjones/DDCASPT2/iron_oxo_DDCASPT2/cluster/4.16/4.16.RasOrb\n\n\n
 ###    /home/grierjones/DDCASPT2/iron_oxo_DDCASPT2/cluster/4.16/4.16.RasOrb\n\n\n
 ###    home/grierjones/DDCASPT2/iron_oxo_DDCASPT2/cluster/4.16/4.16.RasOrb\n\n\n
 ###    ome/grierjones/DDCASPT2/iron_oxo_DDCASPT2/cluster/4.16/4.16.RasOrb\n\n\n
 ###    me/grierjones/DDCASPT2/iron_oxo_DDCASPT2/cluster/4.16/4.16.RasOrb\n\n\n
 ###    e/grierjones/DDCASPT2/iron_oxo_DDCASPT2/cluster/4.16/4.16.RasOrb\n\n\n
 ###    /grierjones/DDCASPT2/iron_oxo_DDCASPT2/cluster/4.16/4.16.RasOrb\n\n\n
 ###    grierjones/DDCASPT2/iron_oxo_DDCASPT2/cluster/4.16/4.16.RasOrb\n\n\n
 ###    rierjones/DDCASPT2/iron_oxo_DDCASPT2/cluster/4.16/4.16.RasOrb\n\n\n  ###
 ###    ierjones/DDCASPT2/iron_oxo_DDCASPT2/cluster/4.16/4.16.RasOrb\n\n\n   ###
 ###    erjones/DDCASPT2/iron_oxo_DDCASPT2/cluster/4.16/4.16.RasOrb          ###
 ###                                                                         ###
 ###                                                                         ###
 ###    Error during reading INPORB                                          ###
 ###     not defined yet                                                     ###
 ###                                                                         ###
 ###                                                                         ###
 ###############################################################################
 ###############################################################################
[ process      0]: xquit (rc =    128): _INTERNAL_ERROR_
abort: 
--- Stop Module: rasscf at Sun Dec 22 22:09:33 2024 /rc=_RC_FLOATING_EXCEPTION_ ---
*** files: xmldump
    saved to directory /home/grierjones/DDCASPT2/iron_oxo_DDCASPT2/cluster/4.18

.########################.
.# Non-zero return code #.
.########################.

    Timing: Wall=1.72 User=1.46 System=0.26
************************************
*** WorkDir at /tmp/4.18 cleaned ***
************************************
