   This run of MOLCAS is using the pymolcas driver

                             OPE
                             OPE          NMOL  CASOP  ENMOLC A   SO
                 OPE        NMOLC        AS  OP EN  MO LC     AS  OP
                OPENM       OL CA        SO  PE NM  OL CA     SOP EN
                OP EN      MO   LC       AS  OP ENMOL  CASO   PENMOL
                OP  EN     MO   LC       AS  OP EN     MO     LC ASO
               OP   E  NMOL  C  AS       OP  EN MO     LC     AS  OP
               OP  E   NMO   LC AS        OPEN  MO     LCASOP EN   M
               O  PEN   MO  LCA  SO
            OPE   NMO   L   CAS    OP
        OPENMOL  CASOP     ENMOL   CASOPE
     OPENMOLCA   SOPENMOLCASOPEN   MOLCASOPE
    OPENMOLCAS   OP           EN   MOL    CAS
    OPENMOLCAS       OP  ENM        O     LCA
    OPENMOLCAS    OPEN  MOLCASO     P  E  NMO
    OPENMOLCAS     OP               E  N  MOL
    OPENMOLCA   SO           PENM   O  L  CAS    OPEN    MO    LCAS
    OPENMOLCA   SOP           ENM   O  L  CAS   OP  EN  MOLC  AS   O
    OPENMOLCA   SOPE           NM      O  LCA   S      OP  EN MO
    OPENMOLC                AS         O  PEN   M      OL  CA  SOPE
    OPENMO        LCASOPE  NMOL        C  ASO   P      ENMOLC     AS
    OPE     NMO      LCA  SO     P     E   NM   OL  CA SO  PE N   MO
          OPENMOLCA            SOPE   NMO        LCAS  O    P  ENMO
     OPENMOLCASOPENMOLCASOPENMOLCASOPENMOLCA
        OPENMOLCASOPENMOLCASOPENMOLCASOPE
            OPENMOLCASOPENMOLCASOPENM
               OPENMOLCASOPENMOLCA        version: ea724fe96-dirty
                   OPENMOLCASO
                       OPE                tag:

 OpenMolcas is free software; you can redistribute it and/or modify it
 under the terms of the GNU Lesser General Public License version 2.1.
 OpenMolcas is distributed in the hope that it will be useful, but it
 is provided "as is" and without any express or implied warranties.
 For more details see the full text of the license in the file
 LICENSE or in <http://www.gnu.org/licenses/>.

                 Copyright (C) The OpenMolcas Authors
           For the author list and the recommended citation,
                   consult the file CONTRIBUTORS.md

           *************************************************
           * pymolcas version py2.28                       *
           *   build c4a6d18ded8cb6cad61d2372a9abd97c      *
           *   (after the EMIL interpreter by V. Veryazov) *
           *************************************************

configuration info
------------------
C Compiler ID: Intel
C flags: -std=gnu99
Fortran Compiler ID: Intel
Fortran flags: -fpp -i8 -r8 -heap-arrays
Definitions: _MOLCAS_;_I8_;_LINUX_
Parallel: OFF (GA=OFF)


   -------------------------------------------------------------------------------
  |
  |              Project: 4.87
  |       Submitted from: /home/grierjones/DDCASPT2/iron_oxo_DDCASPT2/cluster/4.87
  |         Scratch area: /tmp/4.87
  |      Save outputs to: /home/grierjones/DDCASPT2/iron_oxo_DDCASPT2/cluster/4.87
  |               Molcas: /home/grierjones/Test/build
  |
  | Scratch area is empty
  |
  |       MOLCAS_DRIVER = /usr/local/pymolcas
  | MOLCAS_KEEP_WORKDIR = NO
  |  MOLCAS_NEW_WORKDIR = YES
  |       MOLCAS_NPROCS = 1
  |        MOLCAS_PRINT = NORMAL
  |       MOLCAS_SOURCE = /home/grierjones/Test/build
  |    MOLCAS_STRUCTURE = 0
  |
   -------------------------------------------------------------------------------

++ ---------   Input file   ---------

&GATEWAY
coord=4.87.xyz
Basis = ANO-RCC-VDZP
Group = nosymm
Expert
End of Input

&SEWARD
End of Input

&SCF
UHF
charge
2
spin
5

>>> COPY $WorkDir/4.87.scf.h5 $CurrDir/

&RASSCF
Title= RASSCF
FileOrb
/home/grierjones/DDCASPT2/iron_oxo_DDCASPT2/cluster/4.85/4.85.RasOrb
NACTEL
10 0 0
RAS2
14
Symmetry
1
Spin
5
charge
2
orblisting
all
ITERation
300 200

>>> COPY $WorkDir/4.87.rasscf.h5 $CurrDir/

>>> COPY $WorkDir/GMJ_Fock_MO.csv $CurrDir/4.87.GMJ_Fock_MO.csv

>>> COPY $WorkDir/GMJ_PT2_Fock_MO.csv $CurrDir/4.87.GMJ_PT2_Fock_MO.csv

&MOTRA
Frozen=0
LUMORB

>>> COPY $WorkDir/GMJ_one_int_indx.csv $CurrDir/4.87.GMJ_one_int_indx.csv

>>> COPY $WorkDir/GMJ_one_int.csv $CurrDir/4.87.GMJ_one_int.csv

>>> COPY $WorkDir/GMJ_two_int_indx.csv $CurrDir/4.87.GMJ_two_int_indx.csv

>>> COPY $WorkDir/GMJ_two_int.csv $CurrDir/4.87.GMJ_two_int.csv

&CASPT2
Frozen
0
MAXITER
50

>>> FOREACH i IN (B,E,F,G,H)

  >>> FOREACH j IN (P,M)

    >>> IF (-FILE GMJ_e2_${i}_${j}.csv)

      >>> COPY $WorkDir/GMJ_RHS_${i}_${j}.csv $CurrDir/GMJ_RHS_${i}_${j}.csv

      >>> COPY $WorkDir/GMJ_IVECW_${i}_${j}.csv $CurrDir/GMJ_IVECW_${i}_${j}.csv

      >>> COPY $WorkDir/GMJ_IVECX_${i}_${j}.csv $CurrDir/GMJ_IVECX_${i}_${j}.csv

      >>> COPY $WorkDir/GMJ_IVECC2_${i}_${j}.csv $CurrDir/GMJ_IVECC2_${i}_${j}.csv

      >>> COPY $WorkDir/GMJ_e2_${i}_${j}.csv $CurrDir/GMJ_e2_${i}_${j}.csv

    >>> END IF

  >>> END FOREACH

>>> END FOREACH

>>> FOREACH i IN (A,C,D)

  >>> IF (-FILE GMJ_e2_$i.csv)

    >>> COPY $WorkDir/GMJ_RHS_$i.csv $CurrDir/GMJ_RHS_$i.csv

    >>> COPY $WorkDir/GMJ_IVECW_$i.csv $CurrDir/GMJ_IVECW_$i.csv

    >>> COPY $WorkDir/GMJ_IVECX_$i.csv $CurrDir/GMJ_IVECX_$i.csv

    >>> COPY $WorkDir/GMJ_IVECC2_$i.csv $CurrDir/GMJ_IVECC2_$i.csv

    >>> COPY $WorkDir/GMJ_e2_$i.csv $CurrDir/GMJ_e2_$i.csv

  >>> END IF

>>> END FOREACH

-- ----------------------------------

--- Start Module: gateway at Sun Dec 22 22:11:05 2024 ---
 
()()()()()()()()()()()()()()()()()()()()()()()()()()()()()()()()()()()()()()()()()()()()()()()()()()

                                              &GATEWAY

                                   only a single process is used
                       available to each process: 2.0 GB of memory, 1 thread?
()()()()()()()()()()()()()()()()()()()()()()()()()()()()()()()()()()()()()()()()()()()()()()()()()()
 
 ###############################################################################
 ###############################################################################
 ###                                                                         ###
 ###                                                                         ###
 ###                                                                         ###
 ###    WARNING: EXPERT option is ON!                                        ###
 ###                                                                         ###
 ###                                                                         ###
 ###############################################################################
 ###############################################################################
 
++    Symmetry information:
      ---------------------
 
                    Character Table for C1 
 
                             E  
                    a        1  x, y, xy, Rz, z, xz, Ry, yz, Rx, I
--
 
 
++    Basis set information:
      ----------------------
 
 
      Basis set label: O.ANO-RCC...3S2P1D.
 
      Electronic valence basis set:
      ------------------
      Associated Effective Charge   8.000000 au
      Associated Actual Charge      8.000000 au
      Nuclear Model: Point charge
 
      Shell  nPrim  nBasis  Cartesian Spherical Contaminant
         s      14       3        X                  
         p       9       2        X                  
         d       4       1                 X         
 
 
      Basis set label: FE.ANO-RCC...5S4P2D1F.
 
      Electronic valence basis set:
      ------------------
      Associated Effective Charge  26.000000 au
      Associated Actual Charge     26.000000 au
      Nuclear Model: Point charge
 
      Shell  nPrim  nBasis  Cartesian Spherical Contaminant
         s      21       5        X                  
         p      15       4        X                  
         d      10       2                 X         
         f       6       1                 X         
--
 
 
++    Molecular structure info:
      -------------------------
 
                    ************************************************ 
                    **** Cartesian Coordinates / Bohr, Angstrom **** 
                    ************************************************ 
 
     Center  Label                x              y              z                     x              y              z
        1      O1               0.000000       0.000000       6.108861              0.000000       0.000000       3.232670
        2      FE2              0.000000       0.000000      -3.085299              0.000000       0.000000      -1.632670
--
 
 
            Nuclear Potential Energy             22.62305611 au
 
 ###############################################################################
 ###############################################################################
 ###                                                                         ###
 ###                                                                         ###
 ###    There were warnings during the execution                             ###
 ###    Please, check the output with care!                                  ###
 ###                                                                         ###
 ###                                                                         ###
 ###############################################################################
 ###############################################################################
--- Stop Module: gateway at Sun Dec 22 22:11:05 2024 /rc=_RC_ALL_IS_WELL_ ---
*** files: xmldump
    saved to directory /home/grierjones/DDCASPT2/iron_oxo_DDCASPT2/cluster/4.87

--- Start Module: seward at Sun Dec 22 22:11:05 2024 ---
 
()()()()()()()()()()()()()()()()()()()()()()()()()()()()()()()()()()()()()()()()()()()()()()()()()()

                                              &SEWARD

                                   only a single process is used
                       available to each process: 2.0 GB of memory, 1 thread?
()()()()()()()()()()()()()()()()()()()()()()()()()()()()()()()()()()()()()()()()()()()()()()()()()()
 
 ###############################################################################
 ###############################################################################
 ###                                                                         ###
 ###                                                                         ###
 ###                                                                         ###
 ###    WARNING: EXPERT option is ON!                                        ###
 ###                                                                         ###
 ###                                                                         ###
 ###############################################################################
 ###############################################################################
               SEWARD will generate:
                  Multipole Moment integrals up to order  2
                  Kinetic Energy integrals
                  Nuclear Attraction integrals (point charge)
                  One-Electron Hamiltonian integrals
                  Velocity integrals
                  Relativistic Douglas-Kroll-Hess integrals:
                    - Parametrization         : EXP
                    - DKH order of Hamiltonian: 2
                    - DKH order of Properties : 0
                         - multipole moment operators
                         - electric potential operators
                         - contact operators
                  Atomic mean-field integrals
                  Two-Electron Repulsion integrals
 
                   Integrals are discarded if absolute value <: 0.10E-13
                   Integral cutoff threshold is set to       <: 0.10E-15
 
            Nuclear Potential Energy             22.62305611 au
 
 
      Basis set specifications :
      Symmetry species         a  
      Basis functions           48
 
 
  Input file to MOLDEN was generated!
 
 ###############################################################################
 ###############################################################################
 ###                                                                         ###
 ###                                                                         ###
 ###    There were warnings during the execution                             ###
 ###    Please, check the output with care!                                  ###
 ###                                                                         ###
 ###                                                                         ###
 ###############################################################################
 ###############################################################################
--- Stop Module: seward at Sun Dec 22 22:11:06 2024 /rc=_RC_ALL_IS_WELL_ ---
*** files: 4.87.GssOrb 4.87.guessorb.h5 4.87.guessorb.molden xmldump
    saved to directory /home/grierjones/DDCASPT2/iron_oxo_DDCASPT2/cluster/4.87

*** symbolic link created: INPORB -> 4.87.GssOrb
--- Start Module: scf at Sun Dec 22 22:11:06 2024 ---
 
()()()()()()()()()()()()()()()()()()()()()()()()()()()()()()()()()()()()()()()()()()()()()()()()()()

                                                &SCF

                                   only a single process is used
                       available to each process: 2.0 GB of memory, 1 thread?
()()()()()()()()()()()()()()()()()()()()()()()()()()()()()()()()()()()()()()()()()()()()()()()()()()
 
 *** Possible bug in opening file
 *** isFreeUnit resets the unit number
++    Input section:
      --------------
 
      Header of the integral files:
      
       Integrals generated by seward 4.2.0  , Sun Dec 22 22:11:05 2024
 
 
      Cartesian coordinates in Angstrom:
      -----------------------------------------------------
      No.  Label        X            Y            Z        
      -----------------------------------------------------
       1   O1         0.00000000   0.00000000   3.23267000
       2   FE2        0.00000000   0.00000000  -1.63267000
      -----------------------------------------------------
      Nuclear repulsion energy =   22.62305611
--
 
++    Orbital specifications:
      -----------------------
 
      Symmetry species               1
                                     a
      Frozen orbitals                0
      Start temperature = 0.500
      End temperature   = 0.010
      Temperature Factor= 0.460
      Deleted orbitals               0
      Total number of orbitals      48
      Number of basis functions     48
--
 
      Molecular charge                           2.000
 
++    Optimization specifications:
      ----------------------------
 
      SCF Algorithm: Conventional USCF
      D(i)-D(i-1) density differences are used
      Number of density matrices in core                5
      Maximum number of NDDO SCF iterations           400
      Maximum number of HF SCF iterations             400
      Threshold for SCF energy change            0.10E-08
      Threshold for density matrix               0.10E-03
      Threshold for Fock matrix                  0.15E-03
      Threshold for linear dependence            0.10E-08
      Threshold at which DIIS is turned on       0.15E+00
      Threshold at which QNR/C2DIIS is turned on 0.75E-01
      Threshold for Norm(delta) (QNR/C2DIIS)     0.20E-04
      DIIS extrapolation of the SCF procedure
      All orbitals punched on: UHFORB
--
 
      Input vectors read from INPORB
      Orbital file label: *Guess orbitals
 
 
++ Convergence information
                               UHF SCF        iterations: Energy and convergence statistics
 
Iter     Tot. SCF        One-elec.       Two-elec.     Energy      Max Dij or  Max Fij      DNorm      TNorm      AccCon     Time
         Energy          Energy          Energy        Change      Delta Norm                                                in Sec.
 
 The total and one-electron energies are shifted by a value of      1000. a.u.
 
   1  -343.293873745  -878.723314677   512.806384821   0.00E+00    0.16E+00*   0.36E+00*    0.75E+01   0.18E+03   None         0.
   2  -343.473894440  -874.572765663   508.475815112  -0.18E+00*   0.12E+00*   0.14E+00*    0.10E+01   0.18E+03   EDIIS        0.
   3  -341.604977152  -922.686488158   558.458454895   0.19E+01*   0.63E-01*   0.19E+00*    0.18E+01   0.19E+03   EDIIS        0.
   4  -342.932428413  -863.027058445   497.471573921  -0.13E+01*   0.72E-01*   0.76E-01*    0.15E+01   0.17E+03   EDIIS        0.
   5  -344.060973520  -896.524698594   529.840668963  -0.11E+01*   0.26E-01*   0.38E-01*    0.85E+00   0.18E+03   EDIIS        0.
   6  -344.194004048  -868.757942520   501.940882361  -0.13E+00*   0.29E+00*   0.21E+00*    0.18E+01   0.18E+03   EDIIS        0.
   7  -343.247688113  -910.438027861   544.567283637   0.95E+00*   0.84E-01*   0.41E-01*    0.20E+01   0.18E+03   EDIIS        0.
   8  -344.874133403  -887.195138408   519.697948894  -0.16E+01*   0.25E+00*   0.15E+00*    0.22E+01   0.18E+03   EDIIS        0.
   9  -345.216370782  -875.157841183   507.318414289  -0.34E+00*   0.23E+00*   0.36E+00*    0.16E+01   0.18E+03   EDIIS        0.
  10  -345.290783532  -880.233353059   512.319513417  -0.74E-01*   0.65E-01*   0.83E-01*    0.70E+00   0.18E+03   EDIIS        0.
  11  -345.299298436  -878.343191019   510.420836472  -0.85E-02*   0.33E-01*   0.33E-01*    0.21E+00   0.18E+03   EDIIS        0.
 
       Fermi aufbau procedure completed!
      nOcc(alpha)=   18
      nOcc(beta) =   14
 
  12  -345.300645400  -879.164941370   511.241239859  -0.13E-02*   0.98E-02*   0.84E-02*    0.84E-01   0.18E+03   EDIIS        0.
  13  -345.300918347  -878.847748003   510.923773545  -0.27E-03*   0.82E-02*   0.48E-02*    0.36E-01   0.18E+03   EDIIS        0.
  14  -345.300988429  -878.975539636   511.051495096  -0.70E-04*   0.42E-02*   0.24E-02*    0.18E-01   0.18E+03   EDIIS        0.
  15  -345.301009502  -878.925941426   511.001875814  -0.21E-04*   0.26E-02*   0.15E-02*    0.99E-02   0.18E+03   EDIIS        0.
  16  -345.301016460  -878.945279266   511.021206694  -0.70E-05*   0.65E-03*   0.19E-02*    0.57E-02   0.18E+03   c2DIIS       0.
  17  -345.301019908  -878.929165661   511.005089642  -0.34E-05*   0.79E-03*   0.33E-03*    0.26E-02   0.18E+03   QNRc2DIIS    0.
  18  -345.301020139  -878.943830768   511.019754518  -0.23E-06*   0.27E-03*   0.13E-03     0.11E-02   0.18E+03   QNRc2DIIS    0.
  19  -345.301020187  -878.940205173   511.016128876  -0.48E-07*   0.40E-03*   0.47E-04     0.37E-03   0.18E+03   QNRc2DIIS    0.
  20  -345.301020200  -878.939706606   511.015630295  -0.13E-07*   0.11E-04    0.24E-05     0.53E-03   0.18E+03   QNRc2DIIS    0.
  21  -345.301020200  -878.939703841   511.015627530  -0.20E-10    0.25E-05    0.80E-06     0.16E-04   0.18E+03   QNRc2DIIS    0.
 
       Convergence after 21 Macro Iterations
--
 
 *****************************************************************************************************************************
 *                                                                                                                           *
 *                                             SCF/KS-DFT Program, Final results                                             *
 *                                                                                                                           *
 *                                                                                                                           *
 *                                                                                                                           *
 *                                                       Final Results                                                       *
 *                                                                                                                           *
 *****************************************************************************************************************************
 
::    Total SCF energy                              -1345.3010202000
      One-electron energy                           -1878.9397038415
      Two-electron energy                             511.0156275305
      Nuclear repulsion energy                         22.6230561111
      Kinetic energy (interpolated)                  1399.7947801953
      Virial theorem                                    0.9610701792
      Total spin, S(S+1)                                8.0100813960
      Total spin, S                                     2.3740357332
      Max non-diagonal density matrix element           0.0000013254
      Max non-diagonal Fock matrix element              0.0000002763
 
 
      All orbitals with orbital energies smaller than  E(LUMO)+0.5 are printed
 
++    Molecular orbitals:
      -------------------
 
      Title: UHF orbitals (alpha)

      Molecular orbitals for symmetry species 1: a  
 
          Orbital            1         2         3         4         5         6         7         8         9        10    
          Energy         -264.6162  -33.4938  -28.5577  -28.5576  -28.5576  -20.8542   -5.4420   -3.9819   -3.9819   -3.9819
          Occ. No.          1.0000    1.0000    1.0000    1.0000    1.0000    1.0000    1.0000    1.0000    1.0000    1.0000
 
        1 O1     1s        -0.0000   -0.0000   -0.0000   -0.0000   -0.0000    1.0000   -0.0000    0.0000   -0.0000   -0.0000
        2 O1     2s        -0.0000   -0.0000   -0.0000   -0.0000   -0.0000   -0.0022   -0.0003    0.0000   -0.0000   -0.0002
        3 O1     3s        -0.0000   -0.0000   -0.0001   -0.0000   -0.0000    0.0004   -0.0005    0.0000   -0.0000   -0.0002
        4 O1     2px       -0.0000   -0.0000    0.0000   -0.0000   -0.0000   -0.0000    0.0000   -0.0000   -0.0000    0.0000
        5 O1     3px       -0.0000    0.0000    0.0000   -0.0000   -0.0000    0.0000   -0.0000   -0.0000   -0.0001    0.0000
        6 O1     2py       -0.0000    0.0000    0.0000   -0.0000    0.0000    0.0000   -0.0000   -0.0000    0.0000    0.0000
        7 O1     3py       -0.0000    0.0000    0.0000   -0.0000    0.0000   -0.0000   -0.0000   -0.0001    0.0000    0.0000
        8 O1     2pz        0.0000    0.0000    0.0000    0.0000    0.0000   -0.0001    0.0002    0.0000    0.0000    0.0001
        9 O1     3pz        0.0000    0.0000    0.0001    0.0000    0.0000    0.0000    0.0005    0.0000    0.0000    0.0001
       10 O1     3d2-      -0.0000   -0.0000   -0.0000   -0.0000   -0.0000   -0.0000    0.0000   -0.0000    0.0000    0.0000
       11 O1     3d1-      -0.0000    0.0000   -0.0000    0.0000   -0.0000   -0.0000   -0.0000    0.0000   -0.0000   -0.0000
       12 O1     3d0        0.0000   -0.0000   -0.0000   -0.0000   -0.0000    0.0009   -0.0000   -0.0000    0.0000   -0.0000
       13 O1     3d1+       0.0000    0.0000   -0.0000    0.0000    0.0000   -0.0000    0.0000    0.0000    0.0000   -0.0000
       14 O1     3d2+       0.0000    0.0000   -0.0000    0.0000    0.0000   -0.0000   -0.0000    0.0000   -0.0000   -0.0000
       15 FE2    1s         1.0000   -0.0000   -0.0000    0.0000    0.0000   -0.0000    0.0000   -0.0000   -0.0000    0.0000
       16 FE2    2s         0.0000    1.0000   -0.0000   -0.0000   -0.0000   -0.0000   -0.0035    0.0000    0.0000   -0.0000
       17 FE2    3s        -0.0000    0.0035    0.0000    0.0000    0.0000   -0.0000    0.9999   -0.0000   -0.0000   -0.0000
       18 FE2    4s         0.0000   -0.0003    0.0000    0.0000    0.0000   -0.0000   -0.0076    0.0000    0.0000    0.0000
       19 FE2    5s        -0.0000    0.0004    0.0000    0.0000    0.0000   -0.0001    0.0083    0.0000    0.0000    0.0000
       20 FE2    2px       -0.0000    0.0000   -0.0000    0.3794    0.9252   -0.0000    0.0000   -0.0015   -0.0032    0.0000
       21 FE2    3px        0.0000   -0.0000   -0.0000    0.0013    0.0032    0.0000    0.0000    0.4218    0.9063   -0.0000
       22 FE2    4px       -0.0000   -0.0000    0.0000   -0.0002   -0.0006   -0.0000    0.0000   -0.0081   -0.0174    0.0000
       23 FE2    5px        0.0000   -0.0000   -0.0000    0.0006    0.0014   -0.0000    0.0000    0.0077    0.0165   -0.0000
       24 FE2    2py       -0.0000    0.0000   -0.0000    0.9252   -0.3794    0.0000   -0.0000   -0.0032    0.0015   -0.0000
       25 FE2    3py        0.0000    0.0000   -0.0000    0.0032   -0.0013    0.0000    0.0000    0.9063   -0.4218    0.0000
       26 FE2    4py        0.0000   -0.0000    0.0000   -0.0006    0.0002   -0.0000    0.0000   -0.0174    0.0081   -0.0000
       27 FE2    5py        0.0000   -0.0000   -0.0000    0.0014   -0.0006   -0.0000   -0.0000    0.0165   -0.0077    0.0000
       28 FE2    2pz        0.0000    0.0000    1.0000    0.0000    0.0000    0.0000   -0.0000    0.0000   -0.0000   -0.0035
       29 FE2    3pz       -0.0000    0.0000    0.0035    0.0000    0.0000   -0.0000    0.0000   -0.0000    0.0000    0.9996
       30 FE2    4pz        0.0000    0.0000   -0.0006   -0.0000   -0.0000   -0.0000    0.0001    0.0000   -0.0000   -0.0192
       31 FE2    5pz        0.0000    0.0000    0.0015    0.0000    0.0000   -0.0000    0.0001   -0.0000    0.0000    0.0182
       32 FE2    3d2-       0.0000   -0.0000   -0.0000   -0.0000   -0.0000    0.0000   -0.0000    0.0000    0.0000   -0.0000
       33 FE2    4d2-       0.0000    0.0000    0.0000    0.0000    0.0000   -0.0000    0.0000    0.0000    0.0000    0.0000
       34 FE2    3d1-      -0.0000    0.0000   -0.0000    0.0000   -0.0000    0.0000    0.0000    0.0000   -0.0000    0.0000
       35 FE2    4d1-      -0.0000    0.0000   -0.0000    0.0000   -0.0000    0.0000    0.0000   -0.0000    0.0000   -0.0000
       36 FE2    3d0        0.0000    0.0000    0.0000    0.0000    0.0000   -0.0000   -0.0000   -0.0000    0.0000    0.0000
       37 FE2    4d0        0.0000    0.0000    0.0000    0.0000    0.0000   -0.0000    0.0001    0.0000   -0.0000   -0.0000
       38 FE2    3d1+       0.0000   -0.0000   -0.0000    0.0000    0.0000   -0.0000   -0.0000    0.0000    0.0000   -0.0000
       39 FE2    4d1+      -0.0000   -0.0000   -0.0000    0.0000    0.0000   -0.0000    0.0000   -0.0000   -0.0000    0.0000
       40 FE2    3d2+       0.0000   -0.0000    0.0000   -0.0000   -0.0000    0.0000    0.0000    0.0000    0.0000    0.0000
       41 FE2    4d2+       0.0000    0.0000    0.0000    0.0000    0.0000   -0.0000    0.0000   -0.0000   -0.0000   -0.0000
       42 FE2    4f3-       0.0000   -0.0000   -0.0000    0.0000   -0.0000    0.0000    0.0000   -0.0000    0.0000    0.0000
       43 FE2    4f2-      -0.0000    0.0000   -0.0000    0.0000   -0.0000   -0.0000   -0.0000   -0.0000    0.0000    0.0000
       44 FE2    4f1-       0.0000   -0.0000   -0.0000    0.0000   -0.0000   -0.0000   -0.0000   -0.0000    0.0000   -0.0000
       45 FE2    4f0        0.0000    0.0000    0.0000    0.0000    0.0000   -0.0000    0.0000    0.0000   -0.0000   -0.0000
       46 FE2    4f1+      -0.0000    0.0000    0.0000    0.0000    0.0000   -0.0000    0.0000   -0.0000   -0.0000    0.0000
       47 FE2    4f2+      -0.0000    0.0000    0.0000    0.0000    0.0000    0.0000   -0.0000   -0.0000   -0.0000   -0.0000
       48 FE2    4f3+      -0.0000   -0.0000   -0.0000   -0.0000    0.0000    0.0000   -0.0000    0.0000   -0.0000   -0.0000
 
          Orbital           11        12        13        14        15        16        17        18        19        20    
          Energy           -1.6626   -1.6626   -1.6626   -1.6626   -1.6626   -1.2983   -0.9499   -0.7380   -0.4818   -0.4818
          Occ. No.          1.0000    1.0000    1.0000    1.0000    1.0000    1.0000    1.0000    1.0000    0.0000    0.0000
 
        1 O1     1s         0.0001   -0.0000   -0.0000   -0.0000   -0.0000    0.0021    0.0007    0.0002    0.0000    0.0000
        2 O1     2s         0.0008   -0.0000   -0.0000   -0.0000   -0.0000    0.9991    0.0047    0.0198    0.0000    0.0000
        3 O1     3s         0.0008   -0.0000   -0.0000   -0.0000   -0.0000    0.0223    0.0064   -0.0117    0.0000    0.0000
        4 O1     2px        0.0000   -0.0000   -0.0000    0.0001    0.0002   -0.0000    0.0000   -0.0000   -0.0000   -0.0012
        5 O1     3px        0.0000   -0.0000   -0.0000    0.0002    0.0005    0.0000    0.0000   -0.0000   -0.0001   -0.0037
        6 O1     2py       -0.0000    0.0000    0.0000    0.0002   -0.0001    0.0000    0.0000   -0.0000   -0.0012    0.0000
        7 O1     3py       -0.0000    0.0000    0.0000    0.0005   -0.0002    0.0000    0.0000   -0.0000   -0.0037    0.0001
        8 O1     2pz       -0.0008    0.0000    0.0000    0.0000    0.0000   -0.0182   -0.0108    0.9971   -0.0000   -0.0000
        9 O1     3pz       -0.0009    0.0000    0.0000    0.0000    0.0000   -0.0068   -0.0059    0.0509   -0.0000   -0.0000
       10 O1     3d2-      -0.0000   -0.0000    0.0000   -0.0000    0.0000   -0.0000    0.0000   -0.0000    0.0000   -0.0000
       11 O1     3d1-      -0.0000    0.0000   -0.0000   -0.0001    0.0000   -0.0000    0.0000    0.0000    0.0000   -0.0000
       12 O1     3d0        0.0001   -0.0000   -0.0000   -0.0000   -0.0000    0.0297    0.0002   -0.0058    0.0000    0.0000
       13 O1     3d1+      -0.0000    0.0000    0.0000   -0.0000   -0.0001   -0.0000   -0.0000    0.0000    0.0000    0.0000
       14 O1     3d2+       0.0000    0.0000    0.0000    0.0000    0.0000   -0.0000    0.0000    0.0000   -0.0000    0.0000
       15 FE2    1s        -0.0000    0.0000    0.0000    0.0000   -0.0000   -0.0000   -0.0000    0.0000   -0.0000   -0.0000
       16 FE2    2s        -0.0000    0.0000    0.0000   -0.0000    0.0000   -0.0000    0.0004    0.0002   -0.0000   -0.0000
       17 FE2    3s         0.0000   -0.0000   -0.0000   -0.0000   -0.0000   -0.0001    0.0101    0.0012   -0.0000   -0.0000
       18 FE2    4s        -0.0002    0.0000    0.0000    0.0000    0.0000    0.0005    0.9278    0.0149   -0.0000   -0.0000
       19 FE2    5s        -0.0003    0.0000    0.0000    0.0000    0.0000   -0.0007   -0.3719   -0.0087   -0.0000   -0.0000
       20 FE2    2px       -0.0000    0.0000    0.0000   -0.0000   -0.0000   -0.0000   -0.0000   -0.0000    0.0000    0.0005
       21 FE2    3px       -0.0000    0.0000    0.0000   -0.0000   -0.0000    0.0000   -0.0000    0.0000    0.0004    0.0186
       22 FE2    4px       -0.0000    0.0000    0.0000   -0.0001   -0.0001    0.0000   -0.0000   -0.0000    0.0230    0.9992
       23 FE2    5px       -0.0000    0.0000    0.0000   -0.0000   -0.0000   -0.0000    0.0000   -0.0000    0.0007    0.0324
       24 FE2    2py        0.0000    0.0000   -0.0000   -0.0000    0.0000   -0.0000    0.0000    0.0000    0.0005   -0.0000
       25 FE2    3py        0.0000   -0.0000   -0.0000   -0.0000    0.0000    0.0000   -0.0000   -0.0000    0.0186   -0.0004
       26 FE2    4py        0.0000   -0.0000   -0.0000   -0.0001    0.0001   -0.0000   -0.0000   -0.0000    0.9992   -0.0230
       27 FE2    5py       -0.0000    0.0000   -0.0000   -0.0000    0.0000   -0.0000   -0.0000    0.0000    0.0324   -0.0007
       28 FE2    2pz       -0.0000    0.0000    0.0000    0.0000    0.0000   -0.0000   -0.0000    0.0000   -0.0000   -0.0000
       29 FE2    3pz       -0.0001    0.0000    0.0000    0.0000    0.0000   -0.0001   -0.0001    0.0003   -0.0000   -0.0000
       30 FE2    4pz       -0.0004    0.0000    0.0000    0.0000    0.0000    0.0003   -0.0063   -0.0214   -0.0000   -0.0000
       31 FE2    5pz       -0.0001    0.0000    0.0000    0.0000    0.0000   -0.0001   -0.0004   -0.0010   -0.0000   -0.0000
       32 FE2    3d2-       0.0000   -0.0523    0.9893   -0.0000    0.0000   -0.0000    0.0000    0.0000    0.0000    0.0000
       33 FE2    4d2-      -0.0000    0.0072   -0.1361    0.0000   -0.0000    0.0000    0.0000   -0.0000   -0.0000    0.0000
       34 FE2    3d1-      -0.0000    0.0000    0.0000    0.8841   -0.4470   -0.0000   -0.0000    0.0000    0.0000   -0.0000
       35 FE2    4d1-       0.0000   -0.0000   -0.0000   -0.1217    0.0615    0.0000   -0.0000    0.0000   -0.0006    0.0000
       36 FE2    3d0        0.9906   -0.0000   -0.0000   -0.0000   -0.0000   -0.0002   -0.0001    0.0005   -0.0000    0.0000
       37 FE2    4d0       -0.1365    0.0000    0.0000    0.0000    0.0000    0.0002   -0.0009   -0.0031    0.0000    0.0000
       38 FE2    3d1+       0.0000   -0.0000   -0.0000    0.4470    0.8841    0.0000    0.0000    0.0000    0.0000    0.0000
       39 FE2    4d1+      -0.0000    0.0000    0.0000   -0.0615   -0.1217    0.0000   -0.0000   -0.0000   -0.0000   -0.0006
       40 FE2    3d2+       0.0000    0.9893    0.0523    0.0000    0.0000    0.0000    0.0000    0.0000    0.0000   -0.0000
       41 FE2    4d2+      -0.0000   -0.1361   -0.0072   -0.0000   -0.0000   -0.0000   -0.0000    0.0000    0.0000   -0.0000
       42 FE2    4f3-       0.0000   -0.0000   -0.0000    0.0000    0.0000   -0.0000    0.0000    0.0000   -0.0000   -0.0000
       43 FE2    4f2-       0.0000   -0.0000    0.0000   -0.0000    0.0000   -0.0000    0.0000   -0.0000   -0.0000   -0.0000
       44 FE2    4f1-       0.0000   -0.0000    0.0000    0.0000   -0.0000    0.0000   -0.0000   -0.0000   -0.0000    0.0000
       45 FE2    4f0        0.0000   -0.0000   -0.0000   -0.0000   -0.0000    0.0000   -0.0000   -0.0001    0.0000    0.0000
       46 FE2    4f1+       0.0000   -0.0000   -0.0000    0.0000    0.0000    0.0000   -0.0000   -0.0000   -0.0000   -0.0000
       47 FE2    4f2+       0.0000    0.0000    0.0000    0.0000    0.0000    0.0000   -0.0000   -0.0000    0.0000   -0.0000
       48 FE2    4f3+       0.0000    0.0000   -0.0000   -0.0000    0.0000    0.0000    0.0000    0.0000    0.0000    0.0000
 
          Orbital           21        22        23        24    
          Energy           -0.4810   -0.2472   -0.1284   -0.1284
          Occ. No.          0.0000    0.0000    0.0000    0.0000
 
        1 O1     1s        -0.0016   -0.0047   -0.0000   -0.0000
        2 O1     2s        -0.0243   -0.0586   -0.0000    0.0000
        3 O1     3s        -0.0092   -0.0136   -0.0000   -0.0000
        4 O1     2px       -0.0000   -0.0000   -0.0508    0.9438
        5 O1     3px       -0.0000   -0.0000   -0.0175    0.3251
        6 O1     2py       -0.0000   -0.0000    0.9438    0.0508
        7 O1     3py       -0.0000   -0.0000    0.3251    0.0175
        8 O1     2pz        0.0596    0.0637    0.0000    0.0000
        9 O1     3pz        0.0156    0.0151    0.0000    0.0000
       10 O1     3d2-       0.0000    0.0000    0.0000    0.0000
       11 O1     3d1-       0.0000    0.0000   -0.0056   -0.0003
       12 O1     3d0       -0.0003   -0.0001   -0.0000   -0.0000
       13 O1     3d1+       0.0000    0.0000    0.0003   -0.0056
       14 O1     3d2+      -0.0000   -0.0000   -0.0000    0.0000
       15 FE2    1s         0.0000    0.0000    0.0000    0.0000
       16 FE2    2s         0.0000   -0.0002   -0.0000    0.0000
       17 FE2    3s         0.0002   -0.0046    0.0000    0.0000
       18 FE2    4s         0.0065    0.3739    0.0000    0.0000
       19 FE2    5s        -0.0010    0.9347    0.0000    0.0000
       20 FE2    2px        0.0000    0.0000    0.0000   -0.0000
       21 FE2    3px        0.0000   -0.0000    0.0000   -0.0006
       22 FE2    4px        0.0000    0.0000    0.0008   -0.0152
       23 FE2    5px        0.0000    0.0000   -0.0001    0.0023
       24 FE2    2py        0.0000    0.0000   -0.0000   -0.0000
       25 FE2    3py        0.0000   -0.0000   -0.0006   -0.0000
       26 FE2    4py        0.0000    0.0000   -0.0152   -0.0008
       27 FE2    5py        0.0000    0.0000    0.0023    0.0001
       28 FE2    2pz        0.0005    0.0000    0.0000    0.0000
       29 FE2    3pz        0.0188    0.0003    0.0000    0.0000
       30 FE2    4pz        1.0021    0.0072    0.0000    0.0000
       31 FE2    5pz        0.0325   -0.0006   -0.0000   -0.0000
       32 FE2    3d2-      -0.0000    0.0000    0.0000    0.0000
       33 FE2    4d2-      -0.0000    0.0000    0.0000    0.0000
       34 FE2    3d1-       0.0000   -0.0000    0.0017    0.0001
       35 FE2    4d1-      -0.0000   -0.0000    0.0164    0.0009
       36 FE2    3d0        0.0002   -0.0002   -0.0000   -0.0000
       37 FE2    4d0       -0.0012   -0.0025   -0.0000   -0.0000
       38 FE2    3d1+       0.0000   -0.0000   -0.0001    0.0017
       39 FE2    4d1+      -0.0000   -0.0000   -0.0009    0.0164
       40 FE2    3d2+       0.0000   -0.0000   -0.0000   -0.0000
       41 FE2    4d2+       0.0000    0.0000    0.0000    0.0000
       42 FE2    4f3-       0.0000   -0.0000   -0.0000   -0.0000
       43 FE2    4f2-      -0.0000   -0.0000    0.0000   -0.0000
       44 FE2    4f1-      -0.0000   -0.0000    0.0002    0.0000
       45 FE2    4f0       -0.0000   -0.0000   -0.0000   -0.0000
       46 FE2    4f1+      -0.0000   -0.0000   -0.0000    0.0002
       47 FE2    4f2+      -0.0000   -0.0000   -0.0000    0.0000
       48 FE2    4f3+       0.0000   -0.0000    0.0000   -0.0000
--
 
 
  Input file to MOLDEN was generated!
 
 
++    Static properties:
      ------------------
 
 
      LoProp Charges per center
 

                   O1       FE2   
      Nuclear      8.0000  26.0000
      Electronic  -7.9995 -24.0005
 
      Total        0.0005   1.9995
--
 
 
      All orbitals with orbital energies smaller than  E(LUMO)+0.5 are printed
 
++    Molecular orbitals:
      -------------------
 
      Title: UHF orbitals (beta)

      Molecular orbitals for symmetry species 1: a  
 
          Orbital            1         2         3         4         5         6         7         8         9        10    
          Energy         -264.6084  -33.3172  -28.3852  -28.3852  -28.3852  -20.9394   -4.9679   -3.4194   -3.4194   -3.4194
          Occ. No.          1.0000    1.0000    1.0000    1.0000    1.0000    1.0000    1.0000    1.0000    1.0000    1.0000
 
        1 O1     1s        -0.0000    0.0000   -0.0000   -0.0000    0.0000    1.0000   -0.0000   -0.0000    0.0000    0.0000
        2 O1     2s        -0.0000    0.0000   -0.0000   -0.0000    0.0000    0.0019   -0.0001   -0.0000    0.0000    0.0001
        3 O1     3s        -0.0000    0.0000   -0.0000   -0.0000    0.0001   -0.0017   -0.0002   -0.0000    0.0000    0.0002
        4 O1     2px       -0.0000   -0.0000    0.0000    0.0000    0.0000    0.0000    0.0000    0.0000    0.0000    0.0000
        5 O1     3px       -0.0000    0.0000    0.0000    0.0000    0.0000   -0.0000   -0.0000    0.0001    0.0001   -0.0000
        6 O1     2py       -0.0000    0.0000    0.0000   -0.0000    0.0000    0.0000   -0.0000    0.0000   -0.0000    0.0000
        7 O1     3py       -0.0000    0.0000    0.0000   -0.0000    0.0000   -0.0000   -0.0000    0.0001   -0.0001    0.0000
        8 O1     2pz        0.0000   -0.0000    0.0000    0.0000   -0.0000   -0.0001    0.0001    0.0000   -0.0000   -0.0001
        9 O1     3pz        0.0000   -0.0000    0.0000    0.0000   -0.0001    0.0001    0.0002    0.0000   -0.0000   -0.0004
       10 O1     3d2-      -0.0000   -0.0000    0.0000   -0.0000   -0.0000   -0.0000    0.0000    0.0000    0.0000    0.0000
       11 O1     3d1-      -0.0000    0.0000   -0.0000    0.0000   -0.0000    0.0000   -0.0000   -0.0000    0.0000   -0.0000
       12 O1     3d0        0.0000    0.0000   -0.0000   -0.0000    0.0000   -0.0004   -0.0000   -0.0000    0.0000    0.0000
       13 O1     3d1+       0.0000    0.0000   -0.0000   -0.0000   -0.0000    0.0000    0.0000   -0.0000   -0.0000    0.0000
       14 O1     3d2+       0.0000    0.0000   -0.0000    0.0000   -0.0000    0.0000   -0.0000    0.0000   -0.0000   -0.0000
       15 FE2    1s         1.0000   -0.0000    0.0000    0.0000   -0.0000    0.0000    0.0000   -0.0000   -0.0000   -0.0000
       16 FE2    2s         0.0000    1.0000    0.0000    0.0000   -0.0000    0.0000    0.0011    0.0000    0.0000   -0.0000
       17 FE2    3s        -0.0000   -0.0011   -0.0000   -0.0000    0.0000    0.0000    1.0000   -0.0000   -0.0000   -0.0001
       18 FE2    4s         0.0000    0.0002    0.0000    0.0000   -0.0000    0.0000   -0.0028    0.0000   -0.0000   -0.0000
       19 FE2    5s        -0.0000   -0.0002    0.0000    0.0000   -0.0000    0.0001    0.0033    0.0000   -0.0000   -0.0001
       20 FE2    2px       -0.0000    0.0000    0.0380    0.9993    0.0000   -0.0000    0.0000    0.0018    0.0027   -0.0000
       21 FE2    3px        0.0000   -0.0000   -0.0001   -0.0032   -0.0000   -0.0000    0.0000    0.5564    0.8308   -0.0000
       22 FE2    4px       -0.0000   -0.0000    0.0000    0.0004    0.0000    0.0000    0.0000   -0.0064   -0.0095    0.0000
       23 FE2    5px        0.0000   -0.0000   -0.0000   -0.0011   -0.0000   -0.0000    0.0000    0.0031    0.0046   -0.0000
       24 FE2    2py       -0.0000    0.0000    0.9993   -0.0380    0.0000    0.0000   -0.0000    0.0027   -0.0018    0.0000
       25 FE2    3py        0.0000    0.0000   -0.0032    0.0001   -0.0000    0.0000    0.0000    0.8308   -0.5564    0.0000
       26 FE2    4py        0.0000   -0.0000    0.0004   -0.0000    0.0000    0.0000    0.0000   -0.0095    0.0064   -0.0000
       27 FE2    5py        0.0000   -0.0000   -0.0011    0.0000   -0.0000    0.0000   -0.0000    0.0046   -0.0031    0.0000
       28 FE2    2pz        0.0000    0.0000   -0.0000   -0.0000    1.0000    0.0000   -0.0000   -0.0000    0.0000    0.0032
       29 FE2    3pz       -0.0000    0.0000    0.0000    0.0000   -0.0032    0.0000    0.0001   -0.0000    0.0000    0.9999
       30 FE2    4pz        0.0000   -0.0000   -0.0000   -0.0000    0.0004    0.0000    0.0000    0.0000   -0.0000   -0.0115
       31 FE2    5pz       -0.0000   -0.0000    0.0000    0.0000   -0.0011    0.0000    0.0000   -0.0000    0.0000    0.0055
       32 FE2    3d2-       0.0000   -0.0000    0.0000   -0.0000   -0.0000    0.0000   -0.0000    0.0000    0.0000    0.0000
       33 FE2    4d2-       0.0000    0.0000   -0.0000    0.0000    0.0000   -0.0000    0.0000    0.0000    0.0000   -0.0000
       34 FE2    3d1-      -0.0000    0.0000    0.0000   -0.0000    0.0000   -0.0000    0.0000    0.0001   -0.0000    0.0000
       35 FE2    4d1-      -0.0000    0.0000   -0.0000    0.0000   -0.0000    0.0000    0.0000   -0.0000    0.0000   -0.0000
       36 FE2    3d0        0.0000   -0.0000    0.0000    0.0000   -0.0000    0.0000   -0.0000   -0.0000    0.0000    0.0001
       37 FE2    4d0        0.0000   -0.0000    0.0000    0.0000   -0.0000    0.0000    0.0000    0.0000   -0.0000   -0.0000
       38 FE2    3d1+       0.0000   -0.0000    0.0000    0.0000    0.0000   -0.0000   -0.0000    0.0000    0.0001   -0.0000
       39 FE2    4d1+      -0.0000   -0.0000   -0.0000   -0.0000   -0.0000    0.0000    0.0000   -0.0000   -0.0000   -0.0000
       40 FE2    3d2+       0.0000   -0.0000   -0.0000   -0.0000   -0.0000    0.0000    0.0000    0.0000    0.0000    0.0000
       41 FE2    4d2+       0.0000    0.0000    0.0000    0.0000    0.0000   -0.0000    0.0000   -0.0000   -0.0000   -0.0000
       42 FE2    4f3-       0.0000   -0.0000    0.0000   -0.0000   -0.0000    0.0000    0.0000   -0.0000    0.0000    0.0000
       43 FE2    4f2-      -0.0000    0.0000    0.0000   -0.0000   -0.0000   -0.0000   -0.0000   -0.0000    0.0000   -0.0000
       44 FE2    4f1-       0.0000   -0.0000   -0.0000    0.0000   -0.0000   -0.0000   -0.0000   -0.0000    0.0000   -0.0000
       45 FE2    4f0        0.0000   -0.0000    0.0000    0.0000   -0.0000    0.0000   -0.0000    0.0000   -0.0000   -0.0000
       46 FE2    4f1+      -0.0000    0.0000   -0.0000   -0.0000   -0.0000   -0.0000    0.0000   -0.0000   -0.0000   -0.0000
       47 FE2    4f2+      -0.0000    0.0000   -0.0000    0.0000    0.0000    0.0000   -0.0000   -0.0000   -0.0000   -0.0000
       48 FE2    4f3+      -0.0000   -0.0000   -0.0000   -0.0000   -0.0000    0.0000    0.0000    0.0000   -0.0000   -0.0000
 
          Orbital           11        12        13        14        15        16        17        18        19        20    
          Energy           -1.6412   -0.9314   -0.9314   -0.8335   -0.5733   -0.5713   -0.5713   -0.5712   -0.5712   -0.5712
          Occ. No.          1.0000    1.0000    1.0000    1.0000    0.0000    0.0000    0.0000    0.0000    0.0000    0.0000
 
        1 O1     1s        -0.0019    0.0000    0.0000    0.0001    0.0001   -0.0000    0.0000   -0.0000   -0.0000   -0.0002
        2 O1     2s         0.9993   -0.0000    0.0000    0.0145   -0.0005   -0.0000    0.0000   -0.0000   -0.0000   -0.0030
        3 O1     3s        -0.0285   -0.0000   -0.0000   -0.0110    0.0015   -0.0000    0.0000   -0.0000   -0.0000   -0.0011
        4 O1     2px        0.0000   -0.1020    0.9936   -0.0000   -0.0000    0.0000   -0.0000   -0.0013    0.0006   -0.0000
        5 O1     3px       -0.0000    0.0049   -0.0479    0.0000   -0.0000    0.0000   -0.0000   -0.0010    0.0004   -0.0000
        6 O1     2py        0.0000    0.9936    0.1020   -0.0000   -0.0000   -0.0000   -0.0000   -0.0006   -0.0013    0.0000
        7 O1     3py        0.0000   -0.0479   -0.0049    0.0000    0.0000   -0.0000   -0.0000   -0.0004   -0.0010    0.0000
        8 O1     2pz       -0.0150    0.0000    0.0000    0.9995    0.0148    0.0000   -0.0000    0.0000    0.0000    0.0113
        9 O1     3pz       -0.0034   -0.0000   -0.0000   -0.0087   -0.0014    0.0000   -0.0000    0.0000    0.0000    0.0029
       10 O1     3d2-      -0.0000    0.0000    0.0000   -0.0000    0.0000    0.0000    0.0000    0.0000    0.0000   -0.0000
       11 O1     3d1-       0.0000   -0.0052   -0.0005    0.0000    0.0000    0.0000   -0.0000    0.0000    0.0000   -0.0000
       12 O1     3d0       -0.0209   -0.0000   -0.0000   -0.0070    0.0002   -0.0000   -0.0000   -0.0000   -0.0000   -0.0000
       13 O1     3d1+       0.0000    0.0005   -0.0052    0.0000   -0.0000   -0.0000   -0.0000    0.0000   -0.0000   -0.0000
       14 O1     3d2+       0.0000   -0.0000    0.0000    0.0000    0.0000   -0.0000    0.0000    0.0000    0.0000   -0.0000
       15 FE2    1s        -0.0000    0.0000    0.0000    0.0000   -0.0000   -0.0000    0.0000    0.0000    0.0000    0.0000
       16 FE2    2s        -0.0000   -0.0000    0.0000    0.0001   -0.0002   -0.0000    0.0000   -0.0000    0.0000   -0.0000
       17 FE2    3s        -0.0000    0.0000    0.0000    0.0005    0.0035    0.0000   -0.0000    0.0000   -0.0000    0.0003
       18 FE2    4s        -0.0005    0.0000   -0.0000   -0.0056    0.9650    0.0000   -0.0000    0.0000   -0.0000    0.0858
       19 FE2    5s        -0.0012   -0.0000    0.0000    0.0016   -0.2467   -0.0000    0.0000   -0.0000    0.0000   -0.0214
       20 FE2    2px       -0.0000    0.0000   -0.0000   -0.0000   -0.0000    0.0000   -0.0000   -0.0000    0.0000   -0.0000
       21 FE2    3px        0.0000    0.0000   -0.0000    0.0000   -0.0000   -0.0000   -0.0000   -0.0001    0.0000   -0.0000
       22 FE2    4px        0.0000    0.0000   -0.0004    0.0000   -0.0000   -0.0000    0.0000    0.0002   -0.0001   -0.0000
       23 FE2    5px       -0.0000    0.0000   -0.0002    0.0000    0.0000   -0.0000   -0.0000   -0.0000    0.0000    0.0000
       24 FE2    2py       -0.0000   -0.0000   -0.0000    0.0000    0.0000    0.0000    0.0000   -0.0000   -0.0000    0.0000
       25 FE2    3py        0.0000   -0.0000   -0.0000   -0.0000   -0.0000   -0.0000    0.0000   -0.0000   -0.0001    0.0000
       26 FE2    4py       -0.0000   -0.0004   -0.0000   -0.0000   -0.0000   -0.0000    0.0000    0.0001    0.0002    0.0000
       27 FE2    5py       -0.0000   -0.0002   -0.0000    0.0000   -0.0000   -0.0000    0.0000   -0.0000   -0.0000   -0.0000
       28 FE2    2pz       -0.0000    0.0000    0.0000    0.0000    0.0000    0.0000   -0.0000    0.0000    0.0000   -0.0000
       29 FE2    3pz       -0.0000   -0.0000   -0.0000    0.0004   -0.0000   -0.0000    0.0000   -0.0000   -0.0000   -0.0001
       30 FE2    4pz       -0.0007    0.0000   -0.0000   -0.0037   -0.0015   -0.0000   -0.0000   -0.0000   -0.0000   -0.0003
       31 FE2    5pz       -0.0004    0.0000    0.0000   -0.0003   -0.0003   -0.0000    0.0000   -0.0000   -0.0000   -0.0001
       32 FE2    3d2-       0.0000   -0.0000   -0.0000   -0.0000   -0.0000   -0.0312   -0.9915    0.0000   -0.0000   -0.0000
       33 FE2    4d2-       0.0000    0.0000    0.0000   -0.0000   -0.0000   -0.0040   -0.1266    0.0000   -0.0000   -0.0000
       34 FE2    3d1-       0.0000    0.0001    0.0000    0.0000    0.0000    0.0000   -0.0000    0.4086    0.9039   -0.0000
       35 FE2    4d1-      -0.0000   -0.0001   -0.0000    0.0000    0.0000    0.0000   -0.0000    0.0521    0.1153   -0.0000
       36 FE2    3d0       -0.0000   -0.0000   -0.0000   -0.0037   -0.0874    0.0000   -0.0000    0.0000    0.0000    0.9882
       37 FE2    4d0       -0.0002   -0.0000   -0.0000   -0.0013   -0.0116    0.0000   -0.0000    0.0000    0.0000    0.1260
       38 FE2    3d1+      -0.0000   -0.0000    0.0001   -0.0000   -0.0000   -0.0000    0.0000    0.9039   -0.4086   -0.0000
       39 FE2    4d1+       0.0000    0.0000   -0.0001   -0.0000   -0.0000   -0.0000    0.0000    0.1153   -0.0521   -0.0000
       40 FE2    3d2+       0.0000    0.0000    0.0000   -0.0000   -0.0000    0.9915   -0.0312    0.0000   -0.0000   -0.0000
       41 FE2    4d2+      -0.0000    0.0000    0.0000    0.0000   -0.0000    0.1266   -0.0040    0.0000   -0.0000   -0.0000
       42 FE2    4f3-       0.0000   -0.0000   -0.0000    0.0000    0.0000   -0.0000   -0.0000    0.0000    0.0000    0.0000
       43 FE2    4f2-      -0.0000    0.0000   -0.0000   -0.0000    0.0000   -0.0000   -0.0000    0.0000   -0.0000   -0.0000
       44 FE2    4f1-       0.0000    0.0000    0.0000    0.0000   -0.0000    0.0000    0.0000    0.0000    0.0000   -0.0000
       45 FE2    4f0       -0.0000   -0.0000    0.0000   -0.0001   -0.0000   -0.0000   -0.0000    0.0000    0.0000    0.0000
       46 FE2    4f1+       0.0000   -0.0000    0.0000   -0.0000   -0.0000   -0.0000    0.0000    0.0000   -0.0000    0.0000
       47 FE2    4f2+       0.0000   -0.0000    0.0000   -0.0000   -0.0000    0.0000   -0.0000    0.0000   -0.0000   -0.0000
       48 FE2    4f3+       0.0000    0.0000   -0.0000    0.0000   -0.0000    0.0000    0.0000   -0.0000   -0.0000   -0.0000
 
          Orbital           21        22        23        24    
          Energy           -0.3916   -0.3916   -0.3906   -0.2256
          Occ. No.          0.0000    0.0000    0.0000    0.0000
 
        1 O1     1s         0.0000    0.0000   -0.0017   -0.0046
        2 O1     2s         0.0000    0.0000   -0.0214   -0.0523
        3 O1     3s         0.0000    0.0000   -0.0048   -0.0080
        4 O1     2px       -0.0001   -0.0049   -0.0000   -0.0000
        5 O1     3px       -0.0000   -0.0012   -0.0000   -0.0000
        6 O1     2py       -0.0049    0.0001   -0.0000   -0.0000
        7 O1     3py       -0.0012    0.0000   -0.0000   -0.0000
        8 O1     2pz       -0.0000   -0.0000    0.0355    0.0502
        9 O1     3pz       -0.0000   -0.0000    0.0031    0.0081
       10 O1     3d2-       0.0000   -0.0000    0.0000    0.0000
       11 O1     3d1-      -0.0002    0.0000    0.0000    0.0000
       12 O1     3d0       -0.0000   -0.0000    0.0007    0.0009
       13 O1     3d1+      -0.0000   -0.0002   -0.0000   -0.0000
       14 O1     3d2+      -0.0000   -0.0000   -0.0000   -0.0000
       15 FE2    1s        -0.0000    0.0000    0.0000    0.0000
       16 FE2    2s         0.0000    0.0000    0.0000    0.0002
       17 FE2    3s        -0.0000   -0.0000    0.0001   -0.0024
       18 FE2    4s         0.0000    0.0000    0.0010    0.2498
       19 FE2    5s        -0.0000   -0.0000   -0.0042    0.9734
       20 FE2    2px       -0.0000   -0.0003   -0.0000    0.0000
       21 FE2    3px        0.0002    0.0110    0.0000   -0.0000
       22 FE2    4px        0.0187    0.9972    0.0000    0.0000
       23 FE2    5px        0.0014    0.0721    0.0000    0.0000
       24 FE2    2py       -0.0003    0.0000   -0.0000    0.0000
       25 FE2    3py        0.0110   -0.0002    0.0000   -0.0000
       26 FE2    4py        0.9972   -0.0187    0.0000    0.0000
       27 FE2    5py        0.0721   -0.0014    0.0000    0.0000
       28 FE2    2pz        0.0000    0.0000   -0.0003   -0.0000
       29 FE2    3pz       -0.0000   -0.0000    0.0111    0.0002
       30 FE2    4pz       -0.0000   -0.0000    0.9988    0.0093
       31 FE2    5pz       -0.0000   -0.0000    0.0720    0.0000
       32 FE2    3d2-       0.0000    0.0000   -0.0000    0.0000
       33 FE2    4d2-      -0.0000    0.0000   -0.0000    0.0000
       34 FE2    3d1-      -0.0001    0.0000    0.0000    0.0000
       35 FE2    4d1-      -0.0000    0.0000    0.0000   -0.0000
       36 FE2    3d0       -0.0000    0.0000    0.0011    0.0010
       37 FE2    4d0        0.0000    0.0000   -0.0005   -0.0013
       38 FE2    3d1+      -0.0000   -0.0001    0.0000    0.0000
       39 FE2    4d1+      -0.0000   -0.0000   -0.0000   -0.0000
       40 FE2    3d2+       0.0000    0.0000    0.0000   -0.0000
       41 FE2    4d2+       0.0000   -0.0000    0.0000    0.0000
       42 FE2    4f3-      -0.0000   -0.0000    0.0000   -0.0000
       43 FE2    4f2-      -0.0000   -0.0000   -0.0000    0.0000
       44 FE2    4f1-      -0.0000    0.0000   -0.0000   -0.0000
       45 FE2    4f0        0.0000    0.0000   -0.0000   -0.0000
       46 FE2    4f1+      -0.0000   -0.0000   -0.0000   -0.0000
       47 FE2    4f2+       0.0000   -0.0000    0.0000   -0.0000
       48 FE2    4f3+       0.0000    0.0000    0.0000   -0.0000
--
 
 
++    Molecular charges:
      ------------------
 
      Mulliken charges per centre and basis function type
      ---------------------------------------------------
 
                            O1                      FE2   
                     alpha        beta       alpha        beta
      1s           1.0000      1.0000      1.0000      1.0000
      2s           0.9986      0.9988      1.0000      1.0000
      2px          0.0000      0.9977      1.0000      1.0000
      2pz          0.9955      0.9995      1.0000      1.0000
      2py          0.0000      0.9977      1.0000      1.0000
      3s           0.0007      0.0009      1.0000      1.0000
      3px          0.0000      0.0023      0.9993      0.9998
      3pz          0.0031      0.0001      0.9993      0.9998
      3py          0.0000      0.0023      0.9993      0.9998
      4s           0.0000      0.0000      0.8617      0.0002
      3d2+        -0.0000      0.0000      0.9814      0.0000
      3d1+        -0.0000      0.0000      0.9814      0.0000
      3d0          0.0009      0.0005      0.9814      0.0000
      3d1-        -0.0000      0.0000      0.9814      0.0000
      3d2-        -0.0000      0.0000      0.9814      0.0000
      4px          0.0000      0.0000      0.0004      0.0001
      4pz          0.0000      0.0000      0.0017      0.0002
      4py          0.0000      0.0000      0.0004      0.0001
      5s           0.0000      0.0000      0.1381     -0.0001
      4d2+         0.0000      0.0000      0.0186      0.0000
      4d1+         0.0000      0.0000      0.0186     -0.0000
      4d0          0.0000      0.0000      0.0187      0.0000
      4d1-         0.0000      0.0000      0.0186     -0.0000
      4d2-         0.0000      0.0000      0.0186      0.0000
      5px          0.0000      0.0000      0.0003      0.0000
      5pz          0.0000      0.0000      0.0004      0.0000
      5py          0.0000      0.0000      0.0003      0.0000
      4f3+         0.0000      0.0000      0.0000      0.0000
      4f2+         0.0000      0.0000      0.0000      0.0000
      4f1+         0.0000      0.0000      0.0000      0.0000
      4f0          0.0000      0.0000      0.0000      0.0000
      4f1-         0.0000      0.0000      0.0000      0.0000
      4f2-         0.0000      0.0000      0.0000      0.0000
      4f3-         0.0000      0.0000      0.0000      0.0000
      Total        2.9988      4.9998     15.0012      9.0002
      Total              7.9986                 24.0014
 
      Charge            0.0014                  1.9986
 
      Total electronic charge=   32.000000
 
      Total            charge=    2.000000
--
 
 
  Input file to MOLDEN was generated!
 
 
++    Static properties:
      ------------------
 
 
      LoProp Charges per center
 

                   O1       FE2   
      Nuclear      8.0000  26.0000
      Electronic  -7.9995 -24.0005
 
      Total        0.0005   1.9995
--
 
 
++    Natural Bond Order analysis
      ---------------------------
      Based on LoProp computed density
      -------------------------------------------------------------------------------------
      Atom A       Atom B       Bond Order
      -------------------------------------------------------------------------------------
      NBO located     20.000 core electrons.
      NBO located      3.994 lone pair electrons.
      NBO located      1.000 non-bonded electrons on atom O1        
      NBO located      1.000 non-bonded electrons on atom O1        
      NBO located      1.000 non-bonded electrons on atom FE2       
      NBO located      1.000 non-bonded electrons on atom FE2       
      NBO located      1.000 non-bonded electrons on atom FE2       
      NBO located      1.000 non-bonded electrons on atom FE2       
      NBO located      1.000 non-bonded electrons on atom FE2       
      NBO located      1.000 non-bonded electrons on atom FE2       
      The remaining    0.007 electrons are to be considered as diffuse
--
 
 
++    Molecular orbitals:
      -------------------
 
      Title: Natural orbitals

      Molecular orbitals for symmetry species 1: a  
 
          Orbital            1         2         3         4         5         6         7         8         9        10    
          Energy         -264.6123  -33.0537  -27.5973  -27.7111  -27.7103  -20.9299   -5.6052   -4.4674   -4.4607   -4.4615
          Occ. No.          2.0000    2.0000    2.0000    2.0000    2.0000    2.0000    2.0000    1.9999    1.9999    1.9999
 
        1 O1     1s         0.0000    0.0061    0.1238    0.0000    0.0000    0.9902   -0.0554   -0.0024   -0.0000   -0.0000
        2 O1     2s        -0.0000   -0.0001   -0.0040   -0.0000   -0.0000   -0.0333    0.0007   -0.0027    0.0000    0.0000
        3 O1     3s        -0.0000    0.0000   -0.0001   -0.0000   -0.0000   -0.0005   -0.0003    0.0004   -0.0000    0.0000
        4 O1     2px       -0.0000   -0.0000   -0.0000   -0.0000   -0.0000    0.0000   -0.0000    0.0000   -0.0000   -0.0000
        5 O1     3px       -0.0000    0.0000    0.0000   -0.0000   -0.0000    0.0000   -0.0000    0.0000    0.0000    0.0000
        6 O1     2py       -0.0000    0.0000   -0.0000   -0.0000    0.0000    0.0000   -0.0000    0.0000   -0.0000    0.0000
        7 O1     3py       -0.0000    0.0000    0.0000   -0.0000    0.0000   -0.0000   -0.0000    0.0000    0.0000   -0.0000
        8 O1     2pz        0.0000   -0.0000    0.0016   -0.0000   -0.0000   -0.0012    0.0047   -0.0324    0.0000   -0.0000
        9 O1     3pz        0.0000   -0.0000    0.0001    0.0000    0.0000    0.0002    0.0004   -0.0008    0.0000   -0.0000
       10 O1     3d2-      -0.0000   -0.0000   -0.0000   -0.0000   -0.0000    0.0000    0.0000    0.0000   -0.0000    0.0000
       11 O1     3d1-      -0.0000    0.0000    0.0000    0.0000   -0.0000   -0.0000   -0.0000   -0.0000    0.0000   -0.0000
       12 O1     3d0        0.0000    0.0000    0.0000    0.0000    0.0000    0.0002   -0.0001    0.0002   -0.0000    0.0000
       13 O1     3d1+       0.0000    0.0000   -0.0000    0.0000    0.0000   -0.0000    0.0000   -0.0000    0.0000    0.0000
       14 O1     3d2+       0.0000    0.0000   -0.0000   -0.0000    0.0000    0.0000   -0.0000   -0.0000    0.0000   -0.0000
       15 FE2    1s         1.0000   -0.0000    0.0000   -0.0000   -0.0000    0.0000    0.0000    0.0000   -0.0000   -0.0000
       16 FE2    2s         0.0000    0.9939    0.0020   -0.0000   -0.0000   -0.0002    0.1106    0.0006   -0.0000    0.0000
       17 FE2    3s        -0.0000   -0.1104    0.0067    0.0000    0.0000    0.0553    0.9923    0.0039   -0.0000    0.0000
       18 FE2    4s         0.0000    0.0005   -0.0000   -0.0000   -0.0000   -0.0001   -0.0022    0.0001    0.0000    0.0000
       19 FE2    5s        -0.0000   -0.0006    0.0000    0.0000    0.0000    0.0003    0.0045   -0.0000    0.0000    0.0000
       20 FE2    2px        0.0000    0.0000   -0.0000    0.3736    0.9109   -0.0000    0.0000   -0.0000    0.0713    0.1600
       21 FE2    3px       -0.0000   -0.0000    0.0000   -0.0664   -0.1620    0.0000   -0.0000   -0.0000    0.4010    0.8990
       22 FE2    4px        0.0000    0.0000   -0.0000    0.0010    0.0024   -0.0000    0.0000    0.0000   -0.0061   -0.0138
       23 FE2    5px       -0.0000   -0.0000    0.0000   -0.0007   -0.0018    0.0000   -0.0000   -0.0000    0.0048    0.0107
       24 FE2    2py        0.0000    0.0000   -0.0000    0.9109   -0.3736    0.0000    0.0000    0.0000    0.1599   -0.0713
       25 FE2    3py       -0.0000   -0.0000    0.0000   -0.1619    0.0665   -0.0000   -0.0000    0.0000    0.8990   -0.4010
       26 FE2    4py        0.0000    0.0000   -0.0000    0.0024   -0.0010    0.0000    0.0000   -0.0000   -0.0138    0.0061
       27 FE2    5py       -0.0000   -0.0000    0.0000   -0.0018    0.0007   -0.0000   -0.0000    0.0000    0.0107   -0.0048
       28 FE2    2pz       -0.0000   -0.0020    0.9768    0.0000   -0.0000   -0.1218   -0.0007    0.1762   -0.0000    0.0000
       29 FE2    3pz       -0.0000    0.0002   -0.1746   -0.0000    0.0000    0.0238   -0.0039    0.9836   -0.0000    0.0000
       30 FE2    4pz        0.0000   -0.0000    0.0026    0.0000   -0.0000   -0.0003    0.0001   -0.0147    0.0000   -0.0000
       31 FE2    5pz       -0.0000   -0.0000   -0.0019   -0.0000    0.0000    0.0003   -0.0000    0.0117   -0.0000    0.0000
       32 FE2    3d2-       0.0000    0.0000    0.0000   -0.0000   -0.0000    0.0000   -0.0000    0.0000    0.0000    0.0000
       33 FE2    4d2-       0.0000   -0.0000    0.0000   -0.0000    0.0000   -0.0000    0.0000   -0.0000    0.0000    0.0000
       34 FE2    3d1-      -0.0000    0.0000    0.0000   -0.0000    0.0000   -0.0000    0.0000    0.0000    0.0001   -0.0000
       35 FE2    4d1-      -0.0000    0.0000   -0.0000    0.0000   -0.0000    0.0000    0.0000   -0.0000   -0.0000    0.0000
       36 FE2    3d0        0.0000    0.0000   -0.0000    0.0000    0.0000    0.0000   -0.0000    0.0002   -0.0000    0.0000
       37 FE2    4d0        0.0000   -0.0000    0.0000    0.0000    0.0000    0.0000    0.0000    0.0000    0.0000   -0.0000
       38 FE2    3d1+       0.0000   -0.0000    0.0000   -0.0000   -0.0000    0.0000   -0.0000    0.0000    0.0000    0.0001
       39 FE2    4d1+      -0.0000   -0.0000   -0.0000    0.0000    0.0000   -0.0000    0.0000   -0.0000   -0.0000   -0.0000
       40 FE2    3d2+       0.0000   -0.0000   -0.0000   -0.0000   -0.0000    0.0000    0.0000    0.0000    0.0000    0.0000
       41 FE2    4d2+       0.0000    0.0000    0.0000    0.0000   -0.0000   -0.0000    0.0000   -0.0000   -0.0000   -0.0000
       42 FE2    4f3-       0.0000   -0.0000   -0.0000    0.0000   -0.0000    0.0000    0.0000    0.0000   -0.0000    0.0000
       43 FE2    4f2-      -0.0000    0.0000   -0.0000    0.0000   -0.0000   -0.0000   -0.0000    0.0000   -0.0000    0.0000
       44 FE2    4f1-       0.0000   -0.0000   -0.0000    0.0000   -0.0000    0.0000   -0.0000   -0.0000   -0.0000    0.0000
       45 FE2    4f0        0.0000   -0.0000    0.0000   -0.0000   -0.0000   -0.0000   -0.0000   -0.0000    0.0000   -0.0000
       46 FE2    4f1+      -0.0000    0.0000   -0.0000    0.0000    0.0000   -0.0000    0.0000   -0.0000   -0.0000   -0.0000
       47 FE2    4f2+      -0.0000    0.0000    0.0000    0.0000    0.0000   -0.0000   -0.0000   -0.0000   -0.0000   -0.0000
       48 FE2    4f3+      -0.0000   -0.0000    0.0000   -0.0000    0.0000    0.0000    0.0000   -0.0000    0.0000   -0.0000
 
          Orbital           11        12        13        14        15        16        17        18        19        20    
          Energy           -0.8434   -1.4329   -0.7847   -0.7847   -1.0832   -1.0833   -1.0833   -0.7587   -0.7845   -0.7845
          Occ. No.          1.9979    1.9974    1.0002    1.0002    1.0000    1.0000    1.0000    1.0000    0.9998    0.9998
 
        1 O1     1s        -0.0110   -0.0317   -0.0000   -0.0000   -0.0001   -0.0000    0.0000   -0.0007   -0.0000    0.0000
        2 O1     2s        -0.2946   -0.9551   -0.0000   -0.0000   -0.0007   -0.0000    0.0000   -0.0062   -0.0000    0.0000
        3 O1     3s         0.0119   -0.0002   -0.0000   -0.0000   -0.0007   -0.0000    0.0000   -0.0062   -0.0000    0.0000
        4 O1     2px        0.0000   -0.0000    0.3184    0.6306    0.0000    0.0000    0.0000   -0.0000   -0.3181    0.6305
        5 O1     3px        0.0000   -0.0000   -0.0152   -0.0301   -0.0000   -0.0000   -0.0000   -0.0000    0.0155   -0.0308
        6 O1     2py        0.0000   -0.0000    0.6306   -0.3184   -0.0000   -0.0000    0.0000    0.0000   -0.6305   -0.3181
        7 O1     3py        0.0000   -0.0000   -0.0301    0.0152   -0.0000    0.0000   -0.0000    0.0000    0.0308    0.0155
        8 O1     2pz       -0.9542    0.2940    0.0000    0.0000   -0.0034   -0.0000    0.0000   -0.0089   -0.0000    0.0000
        9 O1     3pz       -0.0189    0.0107    0.0000    0.0000    0.0007    0.0000   -0.0000    0.0049    0.0000   -0.0000
       10 O1     3d2-       0.0000   -0.0000    0.0000   -0.0000    0.0000   -0.0000   -0.0000   -0.0000   -0.0000   -0.0000
       11 O1     3d1-      -0.0000    0.0000   -0.0034    0.0017    0.0000    0.0000   -0.0000   -0.0000    0.0033    0.0017
       12 O1     3d0        0.0050   -0.0060   -0.0000   -0.0000   -0.0001   -0.0000    0.0000   -0.0001    0.0000   -0.0000
       13 O1     3d1+      -0.0000    0.0000   -0.0017   -0.0034    0.0000   -0.0000   -0.0000    0.0000    0.0017   -0.0033
       14 O1     3d2+      -0.0000    0.0000    0.0000    0.0000   -0.0000    0.0000   -0.0000   -0.0000   -0.0000    0.0000
       15 FE2    1s        -0.0000    0.0000    0.0000    0.0000    0.0000    0.0000   -0.0000    0.0000    0.0000   -0.0000
       16 FE2    2s         0.0003   -0.0002    0.0000    0.0000    0.0000    0.0000   -0.0000    0.0003    0.0000   -0.0000
       17 FE2    3s         0.0031   -0.0019   -0.0000   -0.0000   -0.0000   -0.0000    0.0000   -0.0038   -0.0000    0.0000
       18 FE2    4s         0.0045   -0.0008   -0.0000   -0.0000    0.0002   -0.0000    0.0000   -0.9279   -0.0000    0.0000
       19 FE2    5s         0.0001    0.0007    0.0000    0.0000    0.0003    0.0000   -0.0000    0.3721    0.0000   -0.0000
       20 FE2    2px       -0.0000   -0.0000   -0.0000   -0.0000    0.0000    0.0000   -0.0000    0.0000   -0.0000    0.0000
       21 FE2    3px       -0.0000    0.0000   -0.0000   -0.0001    0.0000   -0.0000    0.0000    0.0000   -0.0000    0.0000
       22 FE2    4px        0.0000   -0.0000   -0.0002   -0.0003    0.0000    0.0000    0.0000    0.0000    0.0001   -0.0001
       23 FE2    5px        0.0000    0.0000   -0.0001   -0.0001    0.0000   -0.0000   -0.0000    0.0000    0.0000   -0.0001
       24 FE2    2py        0.0000   -0.0000   -0.0000    0.0000   -0.0000    0.0000   -0.0000   -0.0000   -0.0000   -0.0000
       25 FE2    3py       -0.0000   -0.0000   -0.0001    0.0000    0.0000    0.0000    0.0000   -0.0000   -0.0000   -0.0000
       26 FE2    4py        0.0000   -0.0000   -0.0003    0.0002    0.0000    0.0000    0.0000    0.0000    0.0001    0.0001
       27 FE2    5py       -0.0000    0.0000   -0.0001    0.0001    0.0000    0.0000    0.0000   -0.0000    0.0001    0.0000
       28 FE2    2pz       -0.0040    0.0009    0.0000   -0.0000    0.0000   -0.0000    0.0000   -0.0000   -0.0000    0.0000
       29 FE2    3pz       -0.0320    0.0070    0.0000    0.0000    0.0001    0.0000   -0.0000    0.0001    0.0000   -0.0000
       30 FE2    4pz        0.0125   -0.0034    0.0000    0.0000    0.0005    0.0000   -0.0000    0.0067    0.0000   -0.0000
       31 FE2    5pz        0.0003    0.0001    0.0000    0.0000    0.0001    0.0000   -0.0000    0.0005    0.0000   -0.0000
       32 FE2    3d2-       0.0000   -0.0000   -0.0000    0.0000   -0.0000   -0.0523   -0.9893   -0.0000   -0.0000   -0.0000
       33 FE2    4d2-       0.0000   -0.0000    0.0000   -0.0000    0.0000    0.0072    0.1361    0.0000    0.0000    0.0000
       34 FE2    3d1-      -0.0000    0.0000    0.6253   -0.3157   -0.0000   -0.0000   -0.0000    0.0000    0.6254    0.3156
       35 FE2    4d1-      -0.0000    0.0000   -0.0861    0.0435    0.0000    0.0000    0.0000   -0.0000   -0.0861   -0.0434
       36 FE2    3d0        0.0035   -0.0010   -0.0000   -0.0000   -0.9906   -0.0000    0.0000    0.0001   -0.0000    0.0000
       37 FE2    4d0        0.0018   -0.0005    0.0000    0.0000    0.1365    0.0000   -0.0000    0.0009    0.0000   -0.0000
       38 FE2    3d1+       0.0000   -0.0000    0.3157    0.6253   -0.0000   -0.0000   -0.0000   -0.0000    0.3156   -0.6254
       39 FE2    4d1+       0.0000   -0.0000   -0.0435   -0.0861    0.0000    0.0000    0.0000    0.0000   -0.0434    0.0861
       40 FE2    3d2+       0.0000   -0.0000    0.0000   -0.0000   -0.0000    0.9893   -0.0523   -0.0000    0.0000   -0.0000
       41 FE2    4d2+      -0.0000    0.0000   -0.0000    0.0000    0.0000   -0.1361    0.0072    0.0000   -0.0000    0.0000
       42 FE2    4f3-      -0.0000    0.0000    0.0000    0.0000   -0.0000   -0.0000    0.0000   -0.0000    0.0000   -0.0000
       43 FE2    4f2-       0.0000    0.0000   -0.0000    0.0000   -0.0000   -0.0000   -0.0000   -0.0000   -0.0000   -0.0000
       44 FE2    4f1-      -0.0000   -0.0000    0.0000   -0.0000   -0.0000   -0.0000   -0.0000    0.0000    0.0000    0.0000
       45 FE2    4f0        0.0001   -0.0000   -0.0000    0.0000   -0.0000    0.0000   -0.0000    0.0000    0.0000   -0.0000
       46 FE2    4f1+       0.0000   -0.0000    0.0000    0.0000   -0.0000   -0.0000   -0.0000   -0.0000    0.0000   -0.0000
       47 FE2    4f2+       0.0000   -0.0000    0.0000    0.0000   -0.0000    0.0000   -0.0000   -0.0000    0.0000   -0.0000
       48 FE2    4f3+      -0.0000   -0.0000   -0.0000    0.0000   -0.0000    0.0000    0.0000   -0.0000   -0.0000    0.0000
 
          Orbital           21        22        23        24        25        26        27        28        29        30    
          Energy            1.1740    0.3688    0.9476    0.9476    0.9969   -0.2076    0.8706   -0.0393   -0.0393    0.5066
          Occ. No.          0.0026    0.0021    0.0001    0.0001    0.0001    0.0000    0.0000    0.0000    0.0000    0.0000
 
        1 O1     1s        -0.0000    0.0006    0.0000    0.0000   -0.0017    0.0048    0.0024    0.0000    0.0000    0.0019
        2 O1     2s        -0.0048    0.0112    0.0000    0.0000   -0.0199    0.0557    0.0278    0.0000    0.0000    0.0243
        3 O1     3s         0.6758    0.2083    0.0000    0.0000   -0.0323    0.1188    0.6091    0.0000    0.0000   -0.3643
        4 O1     2px       -0.0000    0.0000   -0.0007   -0.0039    0.0000    0.0000    0.0000   -0.0002   -0.0099    0.0000
        5 O1     3px        0.0000   -0.0000   -0.0025   -0.0134    0.0000    0.0000    0.0000   -0.0014   -0.0562    0.0000
        6 O1     2py       -0.0000    0.0000   -0.0039    0.0007   -0.0000   -0.0000    0.0000   -0.0099    0.0002    0.0000
        7 O1     3py        0.0000   -0.0000   -0.0134    0.0025    0.0000    0.0000    0.0000   -0.0562    0.0014    0.0000
        8 O1     2pz        0.0243   -0.0303   -0.0000   -0.0000    0.0117   -0.0528   -0.0305   -0.0000   -0.0000   -0.0399
        9 O1     3pz       -0.2742    0.8774   -0.0000   -0.0000   -0.0973   -0.2000   -0.2370    0.0000   -0.0000   -0.3422
       10 O1     3d2-      -0.0000    0.0000    0.0000   -0.0000    0.0000   -0.0000   -0.0000    0.0000   -0.0000   -0.0000
       11 O1     3d1-      -0.0000   -0.0000    0.0011   -0.0002    0.0000   -0.0000    0.0000    0.0080   -0.0002   -0.0000
       12 O1     3d0        0.6649    0.2367    0.0000   -0.0000   -0.0122    0.0145   -0.5474   -0.0000   -0.0000    0.4398
       13 O1     3d1+      -0.0000   -0.0000    0.0002    0.0011    0.0000   -0.0000    0.0000    0.0002    0.0080   -0.0000
       14 O1     3d2+      -0.0000   -0.0000   -0.0000   -0.0000    0.0000    0.0000    0.0000    0.0000   -0.0000    0.0000
       15 FE2    1s        -0.0001    0.0002   -0.0000   -0.0000   -0.0000   -0.0000   -0.0000    0.0000   -0.0000   -0.0001
       16 FE2    2s        -0.0004    0.0012   -0.0000    0.0000   -0.0001   -0.0003   -0.0004    0.0000   -0.0000   -0.0005
       17 FE2    3s        -0.0024    0.0065   -0.0000   -0.0000   -0.0008    0.0018   -0.0019    0.0000   -0.0000   -0.0024
       18 FE2    4s        -0.0094    0.0306   -0.0000   -0.0000   -0.0020   -0.3897   -0.0233    0.0000    0.0000   -0.0349
       19 FE2    5s         0.0229   -0.0399   -0.0000   -0.0000    0.0170   -0.9476   -0.0172   -0.0000    0.0000   -0.0293
       20 FE2    2px       -0.0000    0.0000   -0.0000   -0.0002   -0.0000   -0.0000   -0.0000   -0.0000   -0.0000    0.0000
       21 FE2    3px       -0.0000    0.0000   -0.0034   -0.0177   -0.0000    0.0000   -0.0000    0.0002    0.0070   -0.0000
       22 FE2    4px        0.0000   -0.0000   -0.0963   -0.5067   -0.0000    0.0000   -0.0000    0.0206    0.8570   -0.0000
       23 FE2    5px        0.0000   -0.0000    0.1599    0.8416    0.0000    0.0000   -0.0000    0.0124    0.5170   -0.0000
       24 FE2    2py       -0.0000    0.0000   -0.0002    0.0000   -0.0000   -0.0000   -0.0000   -0.0000    0.0000   -0.0000
       25 FE2    3py        0.0000   -0.0000   -0.0177    0.0034   -0.0000    0.0000    0.0000    0.0070   -0.0002    0.0000
       26 FE2    4py        0.0000   -0.0000   -0.5067    0.0963   -0.0000    0.0000   -0.0000    0.8570   -0.0206    0.0000
       27 FE2    5py       -0.0000    0.0000    0.8416   -0.1599    0.0000   -0.0000   -0.0000    0.5170   -0.0124    0.0000
       28 FE2    2pz       -0.0001    0.0002    0.0000   -0.0000   -0.0002   -0.0000   -0.0000   -0.0000   -0.0000   -0.0000
       29 FE2    3pz       -0.0003   -0.0001    0.0000    0.0000   -0.0181   -0.0009   -0.0055    0.0000   -0.0000   -0.0070
       30 FE2    4pz        0.0802   -0.2614    0.0000    0.0000   -0.4764    0.0056   -0.5203   -0.0000   -0.0000   -0.6714
       31 FE2    5pz        0.0052   -0.0027   -0.0000   -0.0000    0.8704    0.0039   -0.3167   -0.0000   -0.0000   -0.4032
       32 FE2    3d2-       0.0000    0.0000   -0.0000   -0.0000    0.0000   -0.0000   -0.0000    0.0000    0.0000   -0.0000
       33 FE2    4d2-       0.0000    0.0000   -0.0000   -0.0000    0.0000   -0.0000   -0.0000    0.0000    0.0000   -0.0000
       34 FE2    3d1-       0.0000    0.0000   -0.0001    0.0000   -0.0000   -0.0000   -0.0000    0.0013   -0.0000   -0.0000
       35 FE2    4d1-       0.0000   -0.0000   -0.0005    0.0001   -0.0000   -0.0000   -0.0000    0.0083   -0.0002   -0.0000
       36 FE2    3d0       -0.0000    0.0013    0.0000   -0.0000    0.0001   -0.0028   -0.0159   -0.0000   -0.0000    0.0051
       37 FE2    4d0        0.0101   -0.0161    0.0000    0.0000    0.0050   -0.0137   -0.1057   -0.0000   -0.0000    0.0487
       38 FE2    3d1+       0.0000    0.0000   -0.0000   -0.0001   -0.0000    0.0000   -0.0000    0.0000    0.0013    0.0000
       39 FE2    4d1+       0.0000   -0.0000   -0.0001   -0.0005   -0.0000    0.0000   -0.0000    0.0002    0.0083    0.0000
       40 FE2    3d2+       0.0000    0.0000   -0.0000   -0.0000    0.0000   -0.0000   -0.0000    0.0000    0.0000   -0.0000
       41 FE2    4d2+      -0.0000    0.0000   -0.0000   -0.0000    0.0000   -0.0000   -0.0000    0.0000    0.0000   -0.0000
       42 FE2    4f3-      -0.0000   -0.0000   -0.0000    0.0000   -0.0000   -0.0000   -0.0000    0.0000    0.0000   -0.0000
       43 FE2    4f2-      -0.0000    0.0000    0.0000   -0.0000    0.0000    0.0000    0.0000    0.0000   -0.0000    0.0000
       44 FE2    4f1-       0.0000   -0.0000   -0.0001    0.0000   -0.0000    0.0000    0.0000    0.0006   -0.0000    0.0000
       45 FE2    4f0        0.0003   -0.0007    0.0000    0.0000    0.0002   -0.0007   -0.0051    0.0000    0.0000    0.0015
       46 FE2    4f1+       0.0000   -0.0000   -0.0000   -0.0001    0.0000   -0.0000   -0.0000    0.0000    0.0006   -0.0000
       47 FE2    4f2+       0.0000   -0.0000    0.0000   -0.0000    0.0000    0.0000   -0.0000   -0.0000    0.0000    0.0000
       48 FE2    4f3+      -0.0000   -0.0000   -0.0000   -0.0000   -0.0000   -0.0000    0.0000    0.0000    0.0000    0.0000
 
          Orbital           31        32        33        34        35        36        37        38        39        40    
          Energy            0.2963    0.3602    0.2707    0.3665    0.2778    0.2694    0.2697    3.1058    2.2389    1.8969
          Occ. No.          0.0000    0.0000    0.0000    0.0000    0.0000    0.0000    0.0000    0.0000    0.0000    0.0000
 
        1 O1     1s         0.0009    0.0000    0.0000    0.0000   -0.0000    0.0000   -0.0000    0.0000    0.0000   -0.0000
        2 O1     2s         0.0139    0.0000    0.0000    0.0000   -0.0000    0.0000   -0.0000   -0.0001    0.0000   -0.0000
        3 O1     3s        -0.0423   -0.0000   -0.0000   -0.0000    0.0000   -0.0000    0.0000    0.0011   -0.0000    0.0000
        4 O1     2px       -0.0000   -0.0022    0.0027    0.0473   -0.0099   -0.0000   -0.0000    0.0000    0.0027   -0.0049
        5 O1     3px       -0.0000   -0.0382    0.1509    0.9758   -0.1448   -0.0008   -0.0010    0.0000    0.0121   -0.0182
        6 O1     2py       -0.0000    0.0469   -0.0086    0.0043    0.0078    0.0001   -0.0000    0.0000    0.0039    0.0021
        7 O1     3py       -0.0000    0.9866   -0.1221    0.0675    0.0681    0.0005   -0.0001    0.0000    0.0155    0.0077
        8 O1     2pz       -0.0257   -0.0000   -0.0000   -0.0000    0.0000   -0.0000    0.0000    0.0007   -0.0000    0.0000
        9 O1     3pz       -0.0976   -0.0000   -0.0000   -0.0000    0.0000   -0.0000    0.0000    0.0034   -0.0000    0.0000
       10 O1     3d2-      -0.0000   -0.0001   -0.0001   -0.0001   -0.0014    0.0016    0.0009    0.0000    0.3168    0.5237
       11 O1     3d1-      -0.0000   -0.0246    0.0055   -0.0047   -0.0042   -0.0023   -0.0030    0.0000    0.6093    0.3318
       12 O1     3d0        0.0944    0.0000    0.0000    0.0000   -0.0000    0.0000   -0.0000   -0.0026    0.0000   -0.0000
       13 O1     3d1+      -0.0000    0.0002   -0.0024   -0.0252    0.0014    0.0015    0.0013   -0.0000    0.4218   -0.7614
       14 O1     3d2+       0.0000   -0.0003    0.0002   -0.0007   -0.0009    0.0019   -0.0022   -0.0000   -0.2596    0.1867
       15 FE2    1s        -0.0000   -0.0000   -0.0000   -0.0000    0.0000   -0.0000    0.0000    0.0000   -0.0000    0.0000
       16 FE2    2s        -0.0001   -0.0000   -0.0000   -0.0000    0.0000   -0.0000    0.0000    0.0000   -0.0000    0.0000
       17 FE2    3s        -0.0007   -0.0000   -0.0000   -0.0000    0.0000   -0.0000    0.0000    0.0000   -0.0000    0.0000
       18 FE2    4s        -0.0077   -0.0000   -0.0000   -0.0000    0.0000   -0.0000    0.0000    0.0003   -0.0000    0.0000
       19 FE2    5s        -0.0046   -0.0000   -0.0000   -0.0000    0.0000   -0.0000    0.0000    0.0002   -0.0000   -0.0000
       20 FE2    2px        0.0000    0.0000   -0.0000   -0.0000    0.0000    0.0000    0.0000   -0.0000   -0.0000    0.0000
       21 FE2    3px        0.0000    0.0000   -0.0001   -0.0006    0.0001    0.0000    0.0000   -0.0000   -0.0000    0.0000
       22 FE2    4px       -0.0000   -0.0007   -0.0039    0.0078   -0.0043   -0.0000    0.0000    0.0000   -0.0013    0.0020
       23 FE2    5px       -0.0000   -0.0003   -0.0015    0.0034   -0.0018   -0.0000    0.0000    0.0000   -0.0004    0.0006
       24 FE2    2py        0.0000   -0.0000    0.0000   -0.0000   -0.0000   -0.0000    0.0000   -0.0000   -0.0000   -0.0000
       25 FE2    3py        0.0000   -0.0006    0.0000   -0.0000    0.0000    0.0000   -0.0000   -0.0000   -0.0000   -0.0000
       26 FE2    4py       -0.0000    0.0068   -0.0040    0.0017    0.0055    0.0001   -0.0000    0.0000   -0.0017   -0.0009
       27 FE2    5py       -0.0000    0.0030   -0.0016    0.0007    0.0022    0.0000   -0.0000    0.0000   -0.0005   -0.0003
       28 FE2    2pz       -0.0000   -0.0000   -0.0000   -0.0000    0.0000   -0.0000    0.0000    0.0000   -0.0000    0.0000
       29 FE2    3pz       -0.0003   -0.0000   -0.0000   -0.0000    0.0000   -0.0000    0.0000    0.0000   -0.0000    0.0000
       30 FE2    4pz        0.0099    0.0000    0.0000    0.0000   -0.0000    0.0000   -0.0000   -0.0008    0.0000   -0.0000
       31 FE2    5pz        0.0043    0.0000    0.0000    0.0000   -0.0000    0.0000   -0.0000   -0.0003    0.0000   -0.0000
       32 FE2    3d2-      -0.0000    0.0000    0.0002   -0.0001   -0.0011    0.1363   -0.0015    0.0000    0.0004    0.0001
       33 FE2    4d2-      -0.0000    0.0003    0.0013   -0.0006   -0.0083    0.9906   -0.0109    0.0000    0.0029    0.0004
       34 FE2    3d1-       0.0000    0.0124    0.0700   -0.0271   -0.1133   -0.0011    0.0008    0.0000    0.0002    0.0001
       35 FE2    4d1-       0.0000    0.0988    0.5078   -0.1966   -0.8223   -0.0077    0.0055    0.0000    0.0016    0.0013
       36 FE2    3d0       -0.1365   -0.0000   -0.0000   -0.0000    0.0000   -0.0000    0.0000   -0.0024   -0.0000    0.0000
       37 FE2    4d0       -0.9882   -0.0000   -0.0000   -0.0000    0.0000   -0.0000    0.0000   -0.0176   -0.0000    0.0000
       38 FE2    3d1+       0.0000    0.0098    0.1135   -0.0122    0.0742    0.0005   -0.0003   -0.0000    0.0000   -0.0003
       39 FE2    4d1+       0.0000    0.0706    0.8260   -0.0800    0.5375    0.0034   -0.0020   -0.0000    0.0004   -0.0030
       40 FE2    3d2+      -0.0000    0.0001    0.0001   -0.0003   -0.0008   -0.0015   -0.1363    0.0000   -0.0008   -0.0003
       41 FE2    4d2+      -0.0000    0.0006    0.0009   -0.0019   -0.0055   -0.0109   -0.9905    0.0000   -0.0057   -0.0020
       42 FE2    4f3-       0.0001    0.0001   -0.0000    0.0004    0.0003   -0.0007    0.0009   -0.0001    0.0507    0.0226
       43 FE2    4f2-       0.0000   -0.0009   -0.0003   -0.0029    0.0004   -0.0004    0.0005   -0.0000    0.0002    0.0001
       44 FE2    4f1-       0.0000   -0.0006   -0.0011   -0.0046    0.0028   -0.0024   -0.0035   -0.0000    0.2087   -0.0003
       45 FE2    4f0       -0.0177   -0.0000   -0.0000   -0.0000    0.0000   -0.0000    0.0000    0.9998   -0.0000   -0.0000
       46 FE2    4f1+      -0.0000   -0.0005   -0.0011   -0.0001    0.0049   -0.0040   -0.0098    0.0000    0.4859    0.0006
       47 FE2    4f2+       0.0000   -0.0000   -0.0000   -0.0001    0.0000   -0.0000    0.0000   -0.0000   -0.0000    0.0000
       48 FE2    4f3+      -0.0001   -0.0000    0.0000   -0.0001   -0.0002    0.0004   -0.0005    0.0000   -0.0227   -0.0101
 
          Orbital           41        42        43        44        45        46        47    
          Energy            1.8948    2.5613    2.9833    3.1066    3.1066    3.1065    3.1066
          Occ. No.          0.0000    0.0000    0.0000    0.0000    0.0000    0.0000    0.0000
 
        1 O1     1s        -0.0000   -0.0000   -0.0000    0.0000    0.0000    0.0000   -0.0000
        2 O1     2s        -0.0000   -0.0000   -0.0000    0.0000    0.0000    0.0000   -0.0000
        3 O1     3s         0.0000    0.0000    0.0000   -0.0000   -0.0000   -0.0000    0.0000
        4 O1     2px       -0.0009   -0.0029    0.0004    0.0004    0.0001    0.0000   -0.0000
        5 O1     3px       -0.0022   -0.0107    0.0015    0.0051    0.0029    0.0001   -0.0000
        6 O1     2py        0.0039   -0.0022   -0.0007   -0.0003    0.0001    0.0000   -0.0000
        7 O1     3py        0.0153   -0.0092   -0.0027   -0.0015    0.0011    0.0000   -0.0000
        8 O1     2pz        0.0000    0.0000    0.0000   -0.0000   -0.0000   -0.0000    0.0000
        9 O1     3pz        0.0000    0.0000    0.0000   -0.0000   -0.0000   -0.0000    0.0000
       10 O1     3d2-      -0.7165   -0.3038    0.0197    0.0006    0.0002    0.0001   -0.0000
       11 O1     3d1-       0.6081   -0.3193   -0.1057    0.0017    0.0005    0.0002   -0.0000
       12 O1     3d0       -0.0000   -0.0000   -0.0000    0.0000    0.0000    0.0000   -0.0000
       13 O1     3d1+      -0.1528   -0.4169    0.0697   -0.0004   -0.0000    0.0000   -0.0000
       14 O1     3d2+       0.3053   -0.2851    0.2919   -0.0002   -0.0002   -0.0000    0.0002
       15 FE2    1s         0.0000    0.0000    0.0000   -0.0000   -0.0000   -0.0000    0.0000
       16 FE2    2s         0.0000    0.0000    0.0000   -0.0000   -0.0000   -0.0000    0.0000
       17 FE2    3s         0.0000    0.0000    0.0000   -0.0000   -0.0000   -0.0000    0.0000
       18 FE2    4s         0.0000    0.0000    0.0000   -0.0000   -0.0000   -0.0000    0.0000
       19 FE2    5s        -0.0000   -0.0000    0.0000    0.0000    0.0000    0.0000   -0.0000
       20 FE2    2px        0.0000    0.0000   -0.0000   -0.0000   -0.0000   -0.0000    0.0000
       21 FE2    3px        0.0000    0.0000   -0.0000   -0.0000   -0.0000   -0.0000    0.0000
       22 FE2    4px        0.0004    0.0008   -0.0002    0.0002    0.0000    0.0000   -0.0000
       23 FE2    5px        0.0001    0.0002   -0.0001    0.0001    0.0000    0.0000   -0.0000
       24 FE2    2py       -0.0000    0.0000    0.0000    0.0000   -0.0000   -0.0000    0.0000
       25 FE2    3py       -0.0000    0.0000    0.0000    0.0000   -0.0000   -0.0000    0.0000
       26 FE2    4py       -0.0016    0.0006    0.0002   -0.0005    0.0000   -0.0000    0.0000
       27 FE2    5py       -0.0005    0.0002    0.0001   -0.0002    0.0000   -0.0000   -0.0000
       28 FE2    2pz        0.0000    0.0000    0.0000   -0.0000   -0.0000   -0.0000    0.0000
       29 FE2    3pz        0.0000    0.0000    0.0000   -0.0000    0.0000   -0.0000    0.0000
       30 FE2    4pz       -0.0000   -0.0000   -0.0000    0.0000    0.0000    0.0000   -0.0000
       31 FE2    5pz       -0.0000   -0.0000   -0.0000    0.0000    0.0000    0.0000   -0.0000
       32 FE2    3d2-       0.0003    0.0006    0.0000    0.0001    0.0000    0.0000   -0.0000
       33 FE2    4d2-       0.0025    0.0044    0.0003    0.0006    0.0004    0.0001    0.0000
       34 FE2    3d1-       0.0001    0.0008    0.0001   -0.0000   -0.0000   -0.0000    0.0000
       35 FE2    4d1-       0.0010    0.0055    0.0003    0.0001   -0.0000   -0.0000    0.0000
       36 FE2    3d0        0.0000    0.0000    0.0000   -0.0000   -0.0000   -0.0000    0.0000
       37 FE2    4d0        0.0000    0.0000    0.0001   -0.0000   -0.0000   -0.0000    0.0000
       38 FE2    3d1+      -0.0002   -0.0004    0.0000   -0.0000   -0.0000   -0.0000    0.0000
       39 FE2    4d1+      -0.0017   -0.0031    0.0001   -0.0002   -0.0001   -0.0000    0.0000
       40 FE2    3d2+      -0.0005   -0.0009   -0.0001    0.0001    0.0001    0.0000    0.0000
       41 FE2    4d2+      -0.0035   -0.0067   -0.0004    0.0007    0.0005    0.0001   -0.0000
       42 FE2    4f3-       0.0000    0.0108    0.8591   -0.0176   -0.0116   -0.4110    0.0000
       43 FE2    4f2-      -0.0001    0.0004    0.0121   -0.0003    0.9986    0.0000    0.0512
       44 FE2    4f1-      -0.0005    0.2933    0.0559    0.9187    0.0000   -0.0000    0.0000
       45 FE2    4f0       -0.0000   -0.0000    0.0001   -0.0000   -0.0000    0.0000   -0.0000
       46 FE2    4f1+       0.0001    0.6812    0.0835   -0.3946    0.0000    0.0000   -0.0000
       47 FE2    4f2+       0.0000   -0.0000    0.0007   -0.0000    0.0512   -0.0000   -0.9987
       48 FE2    4f3+      -0.0000   -0.0049   -0.3873    0.0079    0.0052   -0.9116   -0.0000
--
 
 
++    Molecular properties:
      ---------------------
 
      Charge (e):
                      =    2.0000
      Dipole Moment (Debye):
      Origin of the operator (Ang)=    0.0000    0.0000    0.0000
                   X=  1.4837E-12               Y= -5.0205E-13               Z= -1.5462E+01           Total=  1.5462E+01
      Center of Charge (Ang)
                     X=    0.00000000               Y=   -0.00000000               Z=   -1.60956109
      Quadrupole Moment (Debye*Ang):
      Origin of the operator (Ang)=    0.0000    0.0000   -0.5508
                  XX= -1.4220E+01              XY= -1.7315E-14              XZ=  3.9856E-11              YY= -1.4220E+01
                  YZ=  8.5996E-12              ZZ= -3.2756E+00
      In traceless form (Debye*Ang)
                  XX= -5.4723E+00              XY= -2.5973E-14              XZ=  5.9784E-11              YY= -5.4723E+00
                  YZ=  1.2899E-11              ZZ=  1.0945E+01
--
 
 
  Input file to MOLDEN was generated!
 
 ###############################################################################
 ###############################################################################
 ###                                                                         ###
 ###                                                                         ###
 ###    RunFile label nBas                                                   ###
 ###    was used       86 times                                              ###
 ###                                                                         ###
 ###                                                                         ###
 ###############################################################################
 ###############################################################################
--- Stop Module: scf at Sun Dec 22 22:11:07 2024 /rc=_RC_ALL_IS_WELL_ ---
*** files: 4.87.LprOrb 4.87.LoProp.molden 4.87.scf.molden 4.87.scf.h5 4.87.UhfOrb 4.87.UnaOrb xmldump
    saved to directory /home/grierjones/DDCASPT2/iron_oxo_DDCASPT2/cluster/4.87

>>> COPY /tmp/4.87/4.87.scf.h5 /home/grierjones/DDCASPT2/iron_oxo_DDCASPT2/cluster/4.87/

*** symbolic link created: INPORB -> 4.87.UnaOrb
--- Start Module: rasscf at Sun Dec 22 22:11:07 2024 ---
 
()()()()()()()()()()()()()()()()()()()()()()()()()()()()()()()()()()()()()()()()()()()()()()()()()()

                                              &RASSCF

                                   only a single process is used
                       available to each process: 2.0 GB of memory, 1 thread?
()()()()()()()()()()()()()()()()()()()()()()()()()()()()()()()()()()()()()()()()()()()()()()()()()()
 
 ###############################################################################
 ###############################################################################
 ###                                                                         ###
 ###                                                                         ###
 ###    LUMORB input error.                                                  ###
 ###                                                                         ###
 ###                                                                         ###
 ###############################################################################
 ###############################################################################
  Keyword LUMORB used with file name StartOrbFile=
 /home/grierjones/DDCASPT2/iron_oxo_DDCASPT2/cluster/4.85/4.85.RasOrb           
                                                  
  but that file cannot be used. Perhaps it does
  not exist?
 
 *************** WARNING ****************
 ###############################################################################
 ###############################################################################
 ###                                                                         ###
 ###                                                                         ###
 ###    Too many macro-iterations.                                           ###
 ###                                                                         ###
 ###                                                                         ###
 ###############################################################################
 ###############################################################################
 Too many macro-iterations requested.
 Reset to maximum, new MAXIT=     200
 ****************************************
 
 *************** WARNING ****************
 ###############################################################################
 ###############################################################################
 ###                                                                         ###
 ###                                                                         ###
 ###    Too many SX-iterations.                                              ###
 ###                                                                         ###
 ###                                                                         ###
 ###############################################################################
 ###############################################################################
 Too many SX-iterations requested.
 Reset to maximum, new ITMAX=     100
 ****************************************
 
      Header of the ONEINT file:
      --------------------------
      
      Integrals generated by seward 4.2.0  , Sun Dec 22 22:11:05 2024
 
 
      OrdInt status: non-squared
 
 
      Cartesian coordinates in Angstrom:
      -----------------------------------------------------
      No.  Label        X            Y            Z        
      -----------------------------------------------------
       1   O1         0.00000000   0.00000000   3.23267000
       2   FE2        0.00000000   0.00000000  -1.63267000
      -----------------------------------------------------
      Nuclear repulsion energy =   22.62305611
 
++    Wave function specifications:
      -----------------------------
 
      Number of closed shell electrons          22
      Number of electrons in active shells      10
      Max number of holes in RAS1 space          0
      Max nr of electrons in RAS3 space          0
      Number of inactive orbitals               11
      Number of active orbitals                 14
      Number of secondary orbitals              23
      Spin quantum number                      2.0
      State symmetry                             1
--
 
++    Orbital specifications:
      -----------------------
 
      Symmetry species                           1
                                                 a
      Frozen orbitals                            0
      Inactive orbitals                         11
      Active orbitals                           14
      RAS1 orbitals                              0
      RAS2 orbitals                             14
      RAS3 orbitals                              0
      Secondary orbitals                        23
      Deleted orbitals                           0
      Number of basis functions                 48
--
 
++    CI expansion specifications:
      ----------------------------
 
      Number of CSFs                        975975
      Number of determinants               1249248
      Number of root(s) required                 1
      Root chosen for geometry opt.              1
      CI root used                               1
         
      highest root included in the CI            1
      max. size of the explicit Hamiltonian    200
--
 
++    Optimization specifications:
      ----------------------------
 
      RASSCF algorithm: Conventional
      Maximum number of macro iterations       200
      Maximum number of SX iterations          100
      Threshold for RASSCF energy            0.100E-07
      Threshold for max MO rotation          0.100E+00
      Threshold for max BLB element          0.100E-03
      Level shift parameter                  0.500E+00
      Make Quasi-Newton update
--
 
 ###############################################################################
 ###############################################################################
 ###                                                                         ###
 ###                                                                         ###
 ###    Location: rdVec_                                                     ###
 ###    File: /home/grierjones/DDCASPT2/iron_oxo_DDCASPT2/cluster/4.85/4.85.RasOrb\n\n\n
 ###    ile: /home/grierjones/DDCASPT2/iron_oxo_DDCASPT2/cluster/4.85/4.85.RasOrb\n\n\n
 ###    le: /home/grierjones/DDCASPT2/iron_oxo_DDCASPT2/cluster/4.85/4.85.RasOrb\n\n\n
 ###    e: /home/grierjones/DDCASPT2/iron_oxo_DDCASPT2/cluster/4.85/4.85.RasOrb\n\n\n
 ###    : /home/grierjones/DDCASPT2/iron_oxo_DDCASPT2/cluster/4.85/4.85.RasOrb\n\n\n
 ###     /home/grierjones/DDCASPT2/iron_oxo_DDCASPT2/cluster/4.85/4.85.RasOrb\n\n\n
 ###    /home/grierjones/DDCASPT2/iron_oxo_DDCASPT2/cluster/4.85/4.85.RasOrb\n\n\n
 ###    home/grierjones/DDCASPT2/iron_oxo_DDCASPT2/cluster/4.85/4.85.RasOrb\n\n\n
 ###    ome/grierjones/DDCASPT2/iron_oxo_DDCASPT2/cluster/4.85/4.85.RasOrb\n\n\n
 ###    me/grierjones/DDCASPT2/iron_oxo_DDCASPT2/cluster/4.85/4.85.RasOrb\n\n\n
 ###    e/grierjones/DDCASPT2/iron_oxo_DDCASPT2/cluster/4.85/4.85.RasOrb\n\n\n
 ###    /grierjones/DDCASPT2/iron_oxo_DDCASPT2/cluster/4.85/4.85.RasOrb\n\n\n
 ###    grierjones/DDCASPT2/iron_oxo_DDCASPT2/cluster/4.85/4.85.RasOrb\n\n\n
 ###    rierjones/DDCASPT2/iron_oxo_DDCASPT2/cluster/4.85/4.85.RasOrb\n\n\n  ###
 ###    ierjones/DDCASPT2/iron_oxo_DDCASPT2/cluster/4.85/4.85.RasOrb\n\n\n   ###
 ###    erjones/DDCASPT2/iron_oxo_DDCASPT2/cluster/4.85/4.85.RasOrb          ###
 ###                                                                         ###
 ###                                                                         ###
 ###    Error during reading INPORB                                          ###
 ###     not defined yet                                                     ###
 ###                                                                         ###
 ###                                                                         ###
 ###############################################################################
 ###############################################################################
[ process      0]: xquit (rc =    128): _INTERNAL_ERROR_
abort: 
--- Stop Module: rasscf at Sun Dec 22 22:11:07 2024 /rc=_RC_FLOATING_EXCEPTION_ ---
*** files: xmldump
    saved to directory /home/grierjones/DDCASPT2/iron_oxo_DDCASPT2/cluster/4.87

.########################.
.# Non-zero return code #.
.########################.

    Timing: Wall=1.69 User=1.46 System=0.23
************************************
*** WorkDir at /tmp/4.87 cleaned ***
************************************
