[Molden Format]
[N_Atoms]
                     2
[Atoms] (AU)
BE1         1      4           0.00000000      0.00000000      0.00000000
LI2         2      3           0.00000000      0.00000000      3.40150702
[Charge] (Mulliken)
 -0.251497047803628     
  0.251497047803617     
[GTO] (AU)
   1
   s  14
  2.262859900E+04  8.443999941E-05
  3.372318100E+03  4.601499968E-04
  7.603504000E+02  2.285389984E-03
  2.117404800E+02  9.648129932E-03
  6.722346800E+01  3.494469975E-02
  2.337217700E+01  1.061099893E-01
  8.721373000E+00  2.458240383E-01
  3.468091000E+00  3.862428773E-01
  1.452144000E+00  3.105526078E-01
  6.086150000E-01  6.415933955E-02
  2.576860000E-01 -2.265049984E-03
  1.041760000E-01 -5.217499963E-04
  4.242700000E-02 -8.757499938E-04
  1.484900000E-02  1.242199991E-04
   s  14
  2.262859900E+04 -1.586999994E-05
  3.372318100E+03 -8.656999968E-05
  7.603504000E+02 -4.302199984E-04
  2.117404800E+02 -1.825079993E-03
  6.722346800E+01 -6.682749976E-03
  2.337217700E+01 -2.095119992E-02
  8.721373000E+00 -5.200308981E-02
  3.468091000E+00 -9.849176964E-02
  1.452144000E+00 -1.355800695E-01
  6.086150000E-01 -6.429875976E-02
  2.576860000E-01  3.125414989E-01
  1.041760000E-01  6.270468577E-01
  4.242700000E-02  2.110231492E-01
  1.484900000E-02 -4.104669985E-03
   p   9
  3.371018400E+01  1.069960000E-03
  8.057649500E+00  6.828550001E-03
  2.836471400E+00  2.119065000E-02
  1.099965700E+00  5.843696001E-02
  4.433964000E-01  2.020920800E-01
  1.822264000E-01  4.582953101E-01
  7.572410000E-02  3.691239601E-01
  3.168540000E-02  6.611471001E-02
  1.108990000E-02  1.405160000E-03
 
   2
   s  14
  9.497934400E+03  9.668999974E-05
  1.416811200E+03  6.087099984E-04
  3.214599400E+02  3.101519992E-03
  9.112416300E+01  1.266904997E-02
  2.999989100E+01  4.248012989E-02
  1.101763100E+01  1.150183297E-01
  4.372801000E+00  2.398650094E-01
  1.831256000E+00  3.584300090E-01
  8.022610000E-01  3.048527792E-01
  3.626480000E-01  8.824261976E-02
  1.139950000E-01 -8.445899977E-04
  5.123700000E-02 -7.943959979E-03
  2.246800000E-02 -3.764419990E-03
  7.860000000E-03 -8.868999976E-05
   s  14
  9.497934400E+03 -1.244999993E-05
  1.416811200E+03 -7.838999954E-05
  3.214599400E+02 -4.007099976E-04
  9.112416300E+01 -1.645249990E-03
  2.999989100E+01 -5.634599967E-03
  1.101763100E+01 -1.590780991E-02
  4.372801000E+00 -3.612581979E-02
  1.831256000E+00 -6.459927962E-02
  8.022610000E-01 -1.008321794E-01
  3.626480000E-01 -9.757613942E-02
  1.139950000E-01  2.301215886E-01
  5.123700000E-02  6.102389764E-01
  2.246800000E-02  2.849406083E-01
  7.860000000E-03  4.026899976E-03
   p   9
  1.311950400E+01  1.524940000E-03
  3.077424200E+00  8.314830000E-03
  1.098800500E+00  1.933203000E-02
  4.357784000E-01  4.934293000E-02
  1.802432000E-01  1.623554000E-01
  7.613330000E-02  3.847505400E-01
  3.254650000E-02  4.336100400E-01
  1.401820000E-02  1.287005900E-01
  4.906400000E-03 -1.018520000E-03
 
[MO]
Sym=     1a  
Ene=    -4.7055
Spin= Alpha
Occup=    1.00000
   1         1.00019250
   2         0.00495929
   3        -0.00000000
   4        -0.00000000
   5         0.00087019
   6        -0.00014945
   7        -0.00106347
   8         0.00000000
   9         0.00000000
  10         0.00081891
Sym=     1a  
Ene=    -4.7000
Spin= Beta
Occup=    1.00000
   1         1.00012830
   2         0.00369710
   3        -0.00000000
   4        -0.00000000
   5         0.00187668
   6        -0.00014313
   7        -0.00103993
   8         0.00000000
   9        -0.00000000
  10         0.00032618
Sym=     2a  
Ene=    -2.4667
Spin= Alpha
Occup=    1.00000
   1        -0.00245652
   2         0.00421526
   3        -0.00000000
   4         0.00000000
   5         0.00318514
   6         0.99873668
   7         0.01001425
   8         0.00000000
   9        -0.00000000
  10         0.00037421
Sym=     2a  
Ene=    -2.4587
Spin= Beta
Occup=    1.00000
   1        -0.00229803
   2         0.00733188
   3        -0.00000000
   4         0.00000000
   5         0.00544064
   6         0.99786198
   7         0.00901092
   8         0.00000000
   9        -0.00000000
  10         0.00142454
Sym=     3a  
Ene=    -0.3475
Spin= Alpha
Occup=    1.00000
   1        -0.02678332
   2         0.85144849
   3        -0.00000000
   4        -0.00000000
   5        -0.09338040
   6        -0.09297463
   7         0.18586672
   8         0.00000000
   9         0.00000000
  10        -0.05320865
Sym=     3a  
Ene=    -0.3304
Spin= Beta
Occup=    1.00000
   1        -0.02830067
   2         0.80532545
   3        -0.00000000
   4        -0.00000000
   5         0.34653254
   6        -0.18227339
   7         0.09040618
   8         0.00000000
   9        -0.00000000
  10        -0.13384781
Sym=     4a  
Ene=    -0.1854
Spin= Alpha
Occup=    1.00000
   1        -0.03716535
   2        -0.31717618
   3         0.00000000
   4         0.00000000
   5         0.64390328
   6        -0.10486508
   7         0.62477198
   8         0.00000000
   9         0.00000000
  10         0.13484002
Sym=     4a  
Ene=     0.0363
Spin= Beta
Occup=    0.00000
   1         0.00000000
   2         0.00000000
   3         0.17903689
   4         0.37409647
   5        -0.00000000
   6        -0.00000000
   7        -0.00000000
   8         0.31242125
   9         0.65280226
  10        -0.00000000
Sym=     5a  
Ene=     0.0185
Spin= Alpha
Occup=    0.00000
   1        -0.00000000
   2         0.00000000
   3         0.16397697
   4         0.34774318
   5         0.00000000
   6        -0.00000000
   7        -0.00000000
   8         0.31929339
   9         0.67712007
  10        -0.00000000
Sym=     5a  
Ene=     0.0363
Spin= Beta
Occup=    0.00000
   1        -0.00000000
   2        -0.00000000
   3         0.37409647
   4        -0.17903689
   5         0.00000000
   6         0.00000000
   7         0.00000000
   8         0.65280226
   9        -0.31242125
  10         0.00000000
Sym=     6a  
Ene=     0.0185
Spin= Alpha
Occup=    0.00000
   1         0.00000000
   2        -0.00000000
   3         0.34774318
   4        -0.16397697
   5        -0.00000000
   6         0.00000000
   7         0.00000000
   8         0.67712007
   9        -0.31929339
  10         0.00000000
Sym=     6a  
Ene=     0.0529
Spin= Beta
Occup=    0.00000
   1         0.01246408
   2        -0.20464589
   3         0.00000000
   4         0.00000000
   5         0.03188984
   6         0.00971577
   7         0.77794410
   8         0.00000000
   9         0.00000000
  10         0.61578503
Sym=     7a  
Ene=     0.0438
Spin= Alpha
Occup=    0.00000
   1         0.06476978
   2         0.10785041
   3         0.00000000
   4         0.00000000
   5        -0.68215725
   6         0.12724561
   7         0.45351217
   8         0.00000000
   9         0.00000000
  10         0.79751001
Sym=     7a  
Ene=     0.1534
Spin= Beta
Occup=    0.00000
   1        -0.01681014
   2         0.16794127
   3         0.00000000
   4         0.00000000
   5        -1.03505388
   6         0.19569187
   7         0.38634194
   8        -0.00000000
   9        -0.00000000
  10         0.12813012
Sym=     8a  
Ene=     0.1717
Spin= Alpha
Occup=    0.00000
   1        -0.00000000
   2        -0.00000000
   3        -1.05757377
   4        -0.28173874
   5         0.00000000
   6        -0.00000000
   7         0.00000000
   8         0.85625903
   9         0.22810828
  10        -0.00000000
Sym=     8a  
Ene=     0.1996
Spin= Beta
Occup=    0.00000
   1         0.00000000
   2         0.00000000
   3        -1.07310726
   4        -0.14863108
   5        -0.00000000
   6         0.00000000
   7         0.00000000
   8         0.89801153
   9         0.12437939
  10         0.00000000
Sym=     9a  
Ene=     0.1717
Spin= Alpha
Occup=    0.00000
   1         0.00000000
   2         0.00000000
   3        -0.28173874
   4         1.05757377
   5        -0.00000000
   6         0.00000000
   7        -0.00000000
   8         0.22810828
   9        -0.85625903
  10         0.00000000
Sym=     9a  
Ene=     0.1996
Spin= Beta
Occup=    0.00000
   1         0.00000000
   2         0.00000000
   3         0.14863108
   4        -1.07310726
   5        -0.00000000
   6         0.00000000
   7         0.00000000
   8        -0.12437939
   9         0.89801153
  10         0.00000000
Sym=    10a  
Ene=     0.2427
Spin= Alpha
Occup=    0.00000
   1         0.35066689
   2         2.10163747
   3        -0.00000000
   4        -0.00000000
   5         0.78878811
   6        -0.41454846
   7        -1.77292892
   8         0.00000000
   9         0.00000000
  10         1.50283298
Sym=    10a  
Ene=     0.2396
Spin= Beta
Occup=    0.00000
   1         0.35798227
   2         2.12965225
   3         0.00000000
   4         0.00000000
   5         0.56426590
   6        -0.37123574
   7        -1.73528829
   8         0.00000000
   9        -0.00000000
  10         1.58177655
