   This run of MOLCAS is using the pymolcas driver

                             OPE
                             OPE          NMOL  CASOP  ENMOLC A   SO
                 OPE        NMOLC        AS  OP EN  MO LC     AS  OP
                OPENM       OL CA        SO  PE NM  OL CA     SOP EN
                OP EN      MO   LC       AS  OP ENMOL  CASO   PENMOL
                OP  EN     MO   LC       AS  OP EN     MO     LC ASO
               OP   E  NMOL  C  AS       OP  EN MO     LC     AS  OP
               OP  E   NMO   LC AS        OPEN  MO     LCASOP EN   M
               O  PEN   MO  LCA  SO
            OPE   NMO   L   CAS    OP
        OPENMOL  CASOP     ENMOL   CASOPE
     OPENMOLCA   SOPENMOLCASOPEN   MOLCASOPE
    OPENMOLCAS   OP           EN   MOL    CAS
    OPENMOLCAS       OP  ENM        O     LCA
    OPENMOLCAS    OPEN  MOLCASO     P  E  NMO
    OPENMOLCAS     OP               E  N  MOL
    OPENMOLCA   SO           PENM   O  L  CAS    OPEN    MO    LCAS
    OPENMOLCA   SOP           ENM   O  L  CAS   OP  EN  MOLC  AS   O
    OPENMOLCA   SOPE           NM      O  LCA   S      OP  EN MO
    OPENMOLC                AS         O  PEN   M      OL  CA  SOPE
    OPENMO        LCASOPE  NMOL        C  ASO   P      ENMOLC     AS
    OPE     NMO      LCA  SO     P     E   NM   OL  CA SO  PE N   MO
          OPENMOLCA            SOPE   NMO        LCAS  O    P  ENMO
     OPENMOLCASOPENMOLCASOPENMOLCASOPENMOLCA
        OPENMOLCASOPENMOLCASOPENMOLCASOPE
            OPENMOLCASOPENMOLCASOPENM
               OPENMOLCASOPENMOLCA        version: ea724fe96-dirty
                   OPENMOLCASO
                       OPE                tag:

 OpenMolcas is free software; you can redistribute it and/or modify it
 under the terms of the GNU Lesser General Public License version 2.1.
 OpenMolcas is distributed in the hope that it will be useful, but it
 is provided "as is" and without any express or implied warranties.
 For more details see the full text of the license in the file
 LICENSE or in <http://www.gnu.org/licenses/>.

                 Copyright (C) The OpenMolcas Authors
           For the author list and the recommended citation,
                   consult the file CONTRIBUTORS.md

           *************************************************
           * pymolcas version py2.28                       *
           *   build c4a6d18ded8cb6cad61d2372a9abd97c      *
           *   (after the EMIL interpreter by V. Veryazov) *
           *************************************************

configuration info
------------------
C Compiler ID: Intel
C flags: -std=gnu99
Fortran Compiler ID: Intel
Fortran flags: -fpp -i8 -r8 -heap-arrays
Definitions: _MOLCAS_;_I8_;_LINUX_
Parallel: OFF (GA=OFF)


   ----------------------------------------------------------------------------------
  |
  |              Project: H10_2.03
  |       Submitted from: /home/grierjones/DDCASPT2/hydrogen_comps/H10_chain/H10_2.03
  |         Scratch area: /tmp/H10_2.03
  |      Save outputs to: /home/grierjones/DDCASPT2/hydrogen_comps/H10_chain/H10_2.03
  |               Molcas: /home/grierjones/Test/build
  |
  | Scratch area is empty
  |
  |       MOLCAS_DRIVER = /usr/local/pymolcas
  | MOLCAS_KEEP_WORKDIR = NO
  |  MOLCAS_NEW_WORKDIR = YES
  |       MOLCAS_NPROCS = 1
  |        MOLCAS_PRINT = NORMAL
  |       MOLCAS_SOURCE = /home/grierjones/Test/build
  |    MOLCAS_STRUCTURE = 0
  |
   ----------------------------------------------------------------------------------

++ ---------   Input file   ---------

&GATEWAY
coord=H10_2.03.xyz
Basis = ANO-RCC-VDZP
Group = nosymm
Expert
End of Input

&SEWARD
End of Input

&SCF

>>> COPY $WorkDir/H10_2.03.scf.h5 $CurrDir/

&RASSCF
Title= RASSCF
FileOrb
/home/grierjones/DDCASPT2/hydrogen_comps/H10_chain/H10_2.01/H10_2.01.RasOrb
NACTEL
10 0 0
Inactive
0
RAS2
10
Symmetry
1
Spin
1
orblisting
all
ITERation
200 100
CIMX
200
SDAV
500

>>> COPY $WorkDir/H10_2.03.rasscf.h5 $CurrDir/

>>> COPY $WorkDir/GMJ_Fock_MO.csv $CurrDir/H10_2.03.GMJ_Fock_MO.csv

>>> COPY $WorkDir/GMJ_PT2_Fock_MO.csv $CurrDir/H10_2.03.GMJ_PT2_Fock_MO.csv

&MOTRA
Frozen=0
LUMORB

>>> COPY $WorkDir/GMJ_one_int_indx.csv $CurrDir/H10_2.03.GMJ_one_int_indx.csv

>>> COPY $WorkDir/GMJ_one_int.csv $CurrDir/H10_2.03.GMJ_one_int.csv

>>> COPY $WorkDir/GMJ_two_int_indx.csv $CurrDir/H10_2.03.GMJ_two_int_indx.csv

>>> COPY $WorkDir/GMJ_two_int.csv $CurrDir/H10_2.03.GMJ_two_int.csv

&CASPT2
Frozen
0

>>> FOREACH i IN (B,E,F,G,H)

  >>> FOREACH j IN (P,M)

    >>> IF (-FILE GMJ_e2_${i}_${j}.csv)

      >>> COPY $WorkDir/GMJ_RHS_${i}_${j}.csv $CurrDir/GMJ_RHS_${i}_${j}.csv

      >>> COPY $WorkDir/GMJ_IVECW_${i}_${j}.csv $CurrDir/GMJ_IVECW_${i}_${j}.csv

      >>> COPY $WorkDir/GMJ_IVECX_${i}_${j}.csv $CurrDir/GMJ_IVECX_${i}_${j}.csv

      >>> COPY $WorkDir/GMJ_IVECC2_${i}_${j}.csv $CurrDir/GMJ_IVECC2_${i}_${j}.csv

      >>> COPY $WorkDir/GMJ_e2_${i}_${j}.csv $CurrDir/GMJ_e2_${i}_${j}.csv

    >>> END IF

  >>> END FOREACH

>>> END FOREACH

>>> FOREACH i IN (A,C,D)

  >>> IF (-FILE GMJ_e2_$i.csv)

    >>> COPY $WorkDir/GMJ_RHS_$i.csv $CurrDir/GMJ_RHS_$i.csv

    >>> COPY $WorkDir/GMJ_IVECW_$i.csv $CurrDir/GMJ_IVECW_$i.csv

    >>> COPY $WorkDir/GMJ_IVECX_$i.csv $CurrDir/GMJ_IVECX_$i.csv

    >>> COPY $WorkDir/GMJ_IVECC2_$i.csv $CurrDir/GMJ_IVECC2_$i.csv

    >>> COPY $WorkDir/GMJ_e2_$i.csv $CurrDir/GMJ_e2_$i.csv

  >>> END IF

>>> END FOREACH

-- ----------------------------------

--- Start Module: gateway at Tue Nov 12 18:37:39 2024 ---
 
()()()()()()()()()()()()()()()()()()()()()()()()()()()()()()()()()()()()()()()()()()()()()()()()()()

                                              &GATEWAY

                                   only a single process is used
                       available to each process: 2.0 GB of memory, 1 thread?
()()()()()()()()()()()()()()()()()()()()()()()()()()()()()()()()()()()()()()()()()()()()()()()()()()
 
 ###############################################################################
 ###############################################################################
 ###                                                                         ###
 ###                                                                         ###
 ###                                                                         ###
 ###    WARNING: EXPERT option is ON!                                        ###
 ###                                                                         ###
 ###                                                                         ###
 ###############################################################################
 ###############################################################################
 
++    Symmetry information:
      ---------------------
 
                    Character Table for C1 
 
                             E  
                    a        1  x, y, xy, Rz, z, xz, Ry, yz, Rx, I
--
 
 
++    Basis set information:
      ----------------------
 
 
      Basis set label: H.ANO-RCC...2S1P.
 
      Electronic valence basis set:
      ------------------
      Associated Effective Charge   1.000000 au
      Associated Actual Charge      1.000000 au
      Nuclear Model: Point charge
 
      Shell  nPrim  nBasis  Cartesian Spherical Contaminant
         s       8       2        X                  
         p       4       1        X                  
--
 
 
++    Molecular structure info:
      -------------------------
 
                    ************************************************ 
                    **** Cartesian Coordinates / Bohr, Angstrom **** 
                    ************************************************ 
 
     Center  Label                x              y              z                     x              y              z
        1      H1               0.000000       0.000000       0.000000              0.000000       0.000000       0.000000
        2      H2               0.000000       0.000000       3.836717              0.000000       0.000000       2.030303
        3      H3               0.000000       0.000000       7.673433              0.000000       0.000000       4.060606
        4      H4               0.000000       0.000000      11.510150              0.000000       0.000000       6.090909
        5      H5               0.000000       0.000000      15.346866              0.000000       0.000000       8.121212
        6      H6               0.000000       0.000000      19.183583              0.000000       0.000000      10.151515
        7      H7               0.000000       0.000000      23.020300              0.000000       0.000000      12.181818
        8      H8               0.000000       0.000000      26.857016              0.000000       0.000000      14.212121
        9      H9               0.000000       0.000000      30.693733              0.000000       0.000000      16.242424
       10      H10              0.000000       0.000000      34.530450              0.000000       0.000000      18.272727
 
                    *************************************** 
                    *    InterNuclear Distances / Bohr    * 
                    *************************************** 
 
               1 H1            2 H2            3 H3            4 H4            5 H5            6 H6    
    1 H1       0.000000
    2 H2       3.836717        0.000000
    3 H3       7.673433        3.836717        0.000000
    4 H4      11.510150        7.673433        3.836717        0.000000
    5 H5      15.346866       11.510150        7.673433        3.836717        0.000000
    6 H6      19.183583       15.346866       11.510150        7.673433        3.836717        0.000000
    7 H7      23.020300       19.183583       15.346866       11.510150        7.673433        3.836717
    8 H8      26.857016       23.020300       19.183583       15.346866       11.510150        7.673433
    9 H9      30.693733       26.857016       23.020300       19.183583       15.346866       11.510150
   10 H10     34.530450       30.693733       26.857016       23.020300       19.183583       15.346866
 
               7 H7            8 H8            9 H9           10 H10   
    7 H7       0.000000
    8 H8       3.836717        0.000000
    9 H9       7.673433        3.836717        0.000000
   10 H10     11.510150        7.673433        3.836717        0.000000
 
                    ******************************************* 
                    *    InterNuclear Distances / Angstrom    * 
                    ******************************************* 
 
               1 H1            2 H2            3 H3            4 H4            5 H5            6 H6    
    1 H1       0.000000
    2 H2       2.030303        0.000000
    3 H3       4.060606        2.030303        0.000000
    4 H4       6.090909        4.060606        2.030303        0.000000
    5 H5       8.121212        6.090909        4.060606        2.030303        0.000000
    6 H6      10.151515        8.121212        6.090909        4.060606        2.030303        0.000000
    7 H7      12.181818       10.151515        8.121212        6.090909        4.060606        2.030303
    8 H8      14.212121       12.181818       10.151515        8.121212        6.090909        4.060606
    9 H9      16.242424       14.212121       12.181818       10.151515        8.121212        6.090909
   10 H10     18.272727       16.242424       14.212121       12.181818       10.151515        8.121212
 
               7 H7            8 H8            9 H9           10 H10   
    7 H7       0.000000
    8 H8       2.030303        0.000000
    9 H9       4.060606        2.030303        0.000000
   10 H10      6.090909        4.060606        2.030303        0.000000
--
 
 
            Nuclear Potential Energy              5.02765371 au
 
 ###############################################################################
 ###############################################################################
 ###                                                                         ###
 ###                                                                         ###
 ###    There were warnings during the execution                             ###
 ###    Please, check the output with care!                                  ###
 ###                                                                         ###
 ###                                                                         ###
 ###############################################################################
 ###############################################################################
--- Stop Module: gateway at Tue Nov 12 18:37:40 2024 /rc=_RC_ALL_IS_WELL_ ---
*** files: xmldump
    saved to directory /home/grierjones/DDCASPT2/hydrogen_comps/H10_chain/H10_2.03

--- Start Module: seward at Tue Nov 12 18:37:40 2024 ---
 
()()()()()()()()()()()()()()()()()()()()()()()()()()()()()()()()()()()()()()()()()()()()()()()()()()

                                              &SEWARD

                                   only a single process is used
                       available to each process: 2.0 GB of memory, 1 thread?
()()()()()()()()()()()()()()()()()()()()()()()()()()()()()()()()()()()()()()()()()()()()()()()()()()
 
 ###############################################################################
 ###############################################################################
 ###                                                                         ###
 ###                                                                         ###
 ###                                                                         ###
 ###    WARNING: EXPERT option is ON!                                        ###
 ###                                                                         ###
 ###                                                                         ###
 ###############################################################################
 ###############################################################################
               SEWARD will generate:
                  Multipole Moment integrals up to order  2
                  Kinetic Energy integrals
                  Nuclear Attraction integrals (point charge)
                  One-Electron Hamiltonian integrals
                  Velocity integrals
                  Relativistic Douglas-Kroll-Hess integrals:
                    - Parametrization         : EXP
                    - DKH order of Hamiltonian: 2
                    - DKH order of Properties : 0
                         - multipole moment operators
                         - electric potential operators
                         - contact operators
                  Atomic mean-field integrals
                  Two-Electron Repulsion integrals
 
                   Integrals are discarded if absolute value <: 0.10E-13
                   Integral cutoff threshold is set to       <: 0.10E-15
 
            Nuclear Potential Energy              5.02765371 au
 
 
      Basis set specifications :
      Symmetry species         a  
      Basis functions           50
 
 
  Input file to MOLDEN was generated!
 
 ###############################################################################
 ###############################################################################
 ###                                                                         ###
 ###                                                                         ###
 ###    There were warnings during the execution                             ###
 ###    Please, check the output with care!                                  ###
 ###                                                                         ###
 ###                                                                         ###
 ###############################################################################
 ###############################################################################
--- Stop Module: seward at Tue Nov 12 18:37:40 2024 /rc=_RC_ALL_IS_WELL_ ---
*** files: H10_2.03.GssOrb H10_2.03.guessorb.h5 H10_2.03.guessorb.molden xmldump
    saved to directory /home/grierjones/DDCASPT2/hydrogen_comps/H10_chain/H10_2.03

*** symbolic link created: INPORB -> H10_2.03.GssOrb
--- Start Module: scf at Tue Nov 12 18:37:40 2024 ---
 
()()()()()()()()()()()()()()()()()()()()()()()()()()()()()()()()()()()()()()()()()()()()()()()()()()

                                                &SCF

                                   only a single process is used
                       available to each process: 2.0 GB of memory, 1 thread?
()()()()()()()()()()()()()()()()()()()()()()()()()()()()()()()()()()()()()()()()()()()()()()()()()()
 
++    Input section:
      --------------
 
      Header of the integral files:
      
       Integrals generated by seward 4.2.0  , Tue Nov 12 18:37:40 2024
 
 
      Cartesian coordinates in Angstrom:
      -----------------------------------------------------
      No.  Label        X            Y            Z        
      -----------------------------------------------------
       1   H1         0.00000000   0.00000000   0.00000000
       2   H2         0.00000000   0.00000000   2.03030300
       3   H3         0.00000000   0.00000000   4.06060600
       4   H4         0.00000000   0.00000000   6.09090900
       5   H5         0.00000000   0.00000000   8.12121200
       6   H6         0.00000000   0.00000000  10.15151500
       7   H7         0.00000000   0.00000000  12.18181800
       8   H8         0.00000000   0.00000000  14.21212100
       9   H9         0.00000000   0.00000000  16.24242400
      10   H10        0.00000000   0.00000000  18.27272700
      -----------------------------------------------------
      Nuclear repulsion energy =    5.02765371
--
 
++    Orbital specifications:
      -----------------------
 
      Symmetry species               1
                                     a
      Frozen orbitals                0
      Occupied orbitals              5
      Secondary orbitals            45
      Deleted orbitals               0
      Total number of orbitals      50
      Number of basis functions     50
--
 
      Molecular charge                           0.000
 
++    Optimization specifications:
      ----------------------------
 
      SCF Algorithm: Conventional
      Minimized density differences are used
      Number of density matrices in core                5
      Maximum number of NDDO SCF iterations           400
      Maximum number of HF SCF iterations             400
      Threshold for SCF energy change            0.10E-08
      Threshold for density matrix               0.10E-03
      Threshold for Fock matrix                  0.15E-03
      Threshold for linear dependence            0.10E-08
      Threshold at which DIIS is turned on       0.15E+00
      Threshold at which QNR/C2DIIS is turned on 0.75E-01
      Threshold for Norm(delta) (QNR/C2DIIS)     0.20E-04
      DIIS extrapolation of the SCF procedure
      All orbitals punched on: SCFORB
--
 
      Input vectors read from INPORB
      Orbital file label: *Guess orbitals
 
 
++ Convergence information
                                   SCF        iterations: Energy and convergence statistics
 
Iter     Tot. SCF        One-elec.       Two-elec.     Energy      Max Dij or  Max Fij      DNorm      TNorm      AccCon     Time
         Energy          Energy          Energy        Change      Delta Norm                                                in Sec.
   1    -4.375576958   -15.381489265     5.978258602   0.00E+00    0.33E+00*   0.10E+00*    0.46E+01   0.11E+02   None         0.
   2    -4.587098913   -15.335245197     5.720492579  -0.21E+00*   0.13E+00*   0.19E-01*    0.14E+01   0.10E+02   EDIIS        0.
   3    -4.598738511   -15.264560726     5.638168509  -0.12E-01*   0.70E-01*   0.85E-02*    0.32E+00   0.10E+02   EDIIS        0.
   4    -4.601232374   -15.262402130     5.633516051  -0.25E-02*   0.31E-01*   0.72E-02*    0.13E+00   0.10E+02   c2DIIS       0.
   5    -4.602457851   -15.254123521     5.624011964  -0.12E-02*   0.11E-01*   0.17E-02*    0.35E-01   0.10E+02   QNRc2DIIS    0.
   6    -4.602568156   -15.256088874     5.625867013  -0.11E-03*   0.16E-01*   0.86E-03*    0.66E-02   0.10E+02   QNRc2DIIS    0.
   7    -4.602624791   -15.254817387     5.624538890  -0.57E-04*   0.10E-02*   0.15E-03*    0.58E-02   0.10E+02   QNRc2DIIS    0.
   8    -4.602625403   -15.254756657     5.624477549  -0.61E-06*   0.18E-03*   0.37E-04     0.10E-02   0.10E+02   QNRc2DIIS    0.
   9    -4.602625433   -15.254751133     5.624471995  -0.30E-07*   0.38E-04*   0.57E-05     0.13E-03   0.10E+02   QNRc2DIIS    0.
  10    -4.602625434   -15.254731907     5.624452767  -0.11E-08*   0.11E-04    0.14E-05     0.48E-04   0.10E+02   QNRc2DIIS    0.
  11    -4.602625434   -15.254732690     5.624453551  -0.72E-10    0.37E-05    0.44E-06     0.48E-05   0.10E+02   QNRc2DIIS    0.
 
       Convergence after 11 Macro Iterations
--
 
 *****************************************************************************************************************************
 *                                                                                                                           *
 *                                             SCF/KS-DFT Program, Final results                                             *
 *                                                                                                                           *
 *                                                                                                                           *
 *                                                                                                                           *
 *                                                       Final Results                                                       *
 *                                                                                                                           *
 *****************************************************************************************************************************
 
::    Total SCF energy                                 -4.6026254337
      One-electron energy                             -15.2547326903
      Two-electron energy                               5.6244535512
      Nuclear repulsion energy                          5.0276537054
      Kinetic energy (interpolated)                     3.3999183764
      Virial theorem                                    1.3537458622
      Total spin, S(S+1)                                0.0000000000
      Total spin, S                                     0.0000000000
      Max non-diagonal density matrix element           0.0000041777
      Max non-diagonal Fock matrix element              0.0000003324
 
 
      All orbitals with orbital energies smaller than  E(LUMO)+0.5 are printed
 
++    Molecular orbitals:
      -------------------
 
      Title: SCF orbitals

      Molecular orbitals for symmetry species 1: a  
 
          Orbital            1         2         3         4         5         6         7         8         9        10    
          Energy           -0.4475   -0.4322   -0.4076   -0.3750   -0.3406   -0.1396   -0.0930   -0.0415    0.0073    0.0442
          Occ. No.          2.0000    2.0000    2.0000    2.0000    2.0000    0.0000    0.0000    0.0000    0.0000    0.0000
 
        1 H1     1s         0.1123   -0.2198    0.3081   -0.3487    0.2735   -0.3374    0.4833   -0.4841    0.3834   -0.2117
        2 H1     2s         0.0135   -0.0282    0.0442   -0.0580    0.0525   -0.1111    0.1773   -0.1961    0.1668   -0.0961
        3 H1     2px       -0.0000    0.0000   -0.0000    0.0000   -0.0000    0.0000    0.0000   -0.0000    0.0000    0.0000
        4 H1     2py        0.0000   -0.0000   -0.0000    0.0000   -0.0000    0.0000   -0.0000    0.0000   -0.0000   -0.0000
        5 H1     2pz        0.0063   -0.0111    0.0133   -0.0121    0.0075    0.0016   -0.0081    0.0167   -0.0219    0.0167
        6 H2     1s         0.1670   -0.3008    0.3644   -0.3309    0.1975    0.1396   -0.3730    0.5687   -0.5874    0.3759
        7 H2     2s         0.0165   -0.0405    0.0697   -0.0874    0.0672    0.0386   -0.1361    0.2287   -0.2416    0.1525
        8 H2     2px       -0.0000    0.0000    0.0000   -0.0000    0.0000   -0.0000   -0.0000    0.0000   -0.0000    0.0000
        9 H2     2py        0.0000   -0.0000    0.0000    0.0000    0.0000    0.0000   -0.0000    0.0000   -0.0000    0.0000
       10 H2     2pz        0.0006    0.0017   -0.0076    0.0141   -0.0139    0.0183   -0.0209    0.0100    0.0058   -0.0115
       11 H3     1s         0.2659   -0.3262    0.1116    0.2355   -0.3691    0.4282   -0.2672   -0.2416    0.6248   -0.5281
       12 H3     2s         0.0348   -0.0411    0.0034    0.0654   -0.0963    0.1465   -0.0942   -0.1000    0.2529   -0.2111
       13 H3     2px       -0.0000   -0.0000    0.0000    0.0000   -0.0000    0.0000   -0.0000    0.0000    0.0000    0.0000
       14 H3     2py       -0.0000   -0.0000    0.0000   -0.0000    0.0000    0.0000   -0.0000    0.0000    0.0000    0.0000
       15 H3     2pz        0.0061   -0.0031   -0.0070    0.0139   -0.0103   -0.0118    0.0230   -0.0199   -0.0005    0.0143
       16 H4     1s         0.2983   -0.2836   -0.0382    0.3408   -0.3107   -0.3042    0.4885   -0.1462   -0.4876    0.6225
       17 H4     2s         0.0329   -0.0468    0.0085    0.0689   -0.0898   -0.0982    0.1861   -0.0619   -0.1968    0.2485
       18 H4     2px        0.0000   -0.0000    0.0000    0.0000   -0.0000   -0.0000    0.0000    0.0000    0.0000   -0.0000
       19 H4     2py       -0.0000   -0.0000   -0.0000   -0.0000   -0.0000   -0.0000   -0.0000    0.0000    0.0000    0.0000
       20 H4     2pz       -0.0020    0.0082   -0.0091   -0.0039    0.0151   -0.0202    0.0042    0.0224   -0.0199   -0.0023
       21 H5     1s         0.3373   -0.0550   -0.3416    0.0898    0.3742   -0.4104   -0.1934    0.5362    0.1580   -0.6795
       22 H5     2s         0.0407    0.0038   -0.0629    0.0042    0.1020   -0.1374   -0.0794    0.2125    0.0645   -0.2711
       23 H5     2px        0.0000   -0.0000   -0.0000   -0.0000   -0.0000    0.0000   -0.0000    0.0000   -0.0000   -0.0000
       24 H5     2py       -0.0000   -0.0000    0.0000    0.0000   -0.0000    0.0000   -0.0000   -0.0000    0.0000    0.0000
       25 H5     2pz        0.0047    0.0065   -0.0083   -0.0084    0.0141    0.0179   -0.0165   -0.0145    0.0225    0.0069
       26 H6     1s         0.3373    0.0550   -0.3416   -0.0898    0.3742    0.4104   -0.1934   -0.5362    0.1580    0.6795
       27 H6     2s         0.0407   -0.0038   -0.0629   -0.0042    0.1020    0.1374   -0.0794   -0.2125    0.0645    0.2711
       28 H6     2px        0.0000   -0.0000   -0.0000    0.0000   -0.0000    0.0000   -0.0000   -0.0000   -0.0000   -0.0000
       29 H6     2py       -0.0000    0.0000   -0.0000   -0.0000   -0.0000   -0.0000   -0.0000    0.0000   -0.0000    0.0000
       30 H6     2pz       -0.0047    0.0065    0.0083   -0.0084   -0.0141    0.0179    0.0165   -0.0145   -0.0225    0.0069
       31 H7     1s         0.2983    0.2836   -0.0382   -0.3408   -0.3107    0.3042    0.4885    0.1462   -0.4876   -0.6225
       32 H7     2s         0.0329    0.0468    0.0085   -0.0689   -0.0898    0.0982    0.1861    0.0619   -0.1968   -0.2485
       33 H7     2px        0.0000    0.0000    0.0000   -0.0000    0.0000   -0.0000   -0.0000    0.0000    0.0000   -0.0000
       34 H7     2py        0.0000    0.0000   -0.0000   -0.0000    0.0000   -0.0000    0.0000   -0.0000   -0.0000    0.0000
       35 H7     2pz        0.0020    0.0082    0.0091   -0.0039   -0.0151   -0.0202   -0.0042    0.0224    0.0199   -0.0023
       36 H8     1s         0.2659    0.3262    0.1116   -0.2355   -0.3691   -0.4282   -0.2672    0.2416    0.6248    0.5281
       37 H8     2s         0.0348    0.0411    0.0034   -0.0654   -0.0963   -0.1465   -0.0942    0.1000    0.2529    0.2111
       38 H8     2px       -0.0000   -0.0000   -0.0000    0.0000   -0.0000    0.0000   -0.0000    0.0000   -0.0000   -0.0000
       39 H8     2py       -0.0000   -0.0000    0.0000   -0.0000   -0.0000    0.0000    0.0000   -0.0000   -0.0000   -0.0000
       40 H8     2pz       -0.0061   -0.0031    0.0070    0.0139    0.0103   -0.0118   -0.0230   -0.0199    0.0005    0.0143
       41 H9     1s         0.1670    0.3008    0.3644    0.3309    0.1975   -0.1396   -0.3730   -0.5687   -0.5874   -0.3759
       42 H9     2s         0.0165    0.0405    0.0697    0.0874    0.0672   -0.0386   -0.1361   -0.2287   -0.2416   -0.1525
       43 H9     2px       -0.0000    0.0000    0.0000   -0.0000    0.0000    0.0000   -0.0000   -0.0000    0.0000    0.0000
       44 H9     2py       -0.0000   -0.0000    0.0000   -0.0000   -0.0000    0.0000   -0.0000   -0.0000    0.0000   -0.0000
       45 H9     2pz       -0.0006    0.0017    0.0076    0.0141    0.0139    0.0183    0.0209    0.0100   -0.0058   -0.0115
       46 H10    1s         0.1123    0.2198    0.3081    0.3487    0.2735    0.3374    0.4833    0.4841    0.3834    0.2117
       47 H10    2s         0.0135    0.0282    0.0442    0.0580    0.0525    0.1111    0.1773    0.1961    0.1668    0.0961
       48 H10    2px        0.0000    0.0000   -0.0000   -0.0000   -0.0000    0.0000   -0.0000    0.0000    0.0000   -0.0000
       49 H10    2py       -0.0000   -0.0000    0.0000    0.0000    0.0000   -0.0000    0.0000   -0.0000    0.0000    0.0000
       50 H10    2pz       -0.0063   -0.0111   -0.0133   -0.0121   -0.0075    0.0016    0.0081    0.0167    0.0219    0.0167
 
          Orbital           11        12        13    
          Energy            0.3132    0.3280    0.3568
          Occ. No.          0.0000    0.0000    0.0000
 
        1 H1     1s        -0.1008    0.1520   -0.1338
        2 H1     2s         0.2065   -0.3636    0.4620
        3 H1     2px        0.0000   -0.0000    0.0000
        4 H1     2py       -0.0000    0.0000    0.0000
        5 H1     2pz       -0.0248    0.0384   -0.0392
        6 H2     1s        -0.1428    0.1869   -0.1231
        7 H2     2s         0.1647   -0.2377    0.1778
        8 H2     2px       -0.0000    0.0000   -0.0000
        9 H2     2py       -0.0000    0.0000   -0.0000
       10 H2     2pz        0.0043   -0.0156    0.0335
       11 H3     1s        -0.1638    0.1716   -0.0303
       12 H3     2s         0.2140   -0.2416    0.0407
       13 H3     2px        0.0000   -0.0000   -0.0000
       14 H3     2py       -0.0000    0.0000   -0.0000
       15 H3     2pz       -0.0085   -0.0013    0.0178
       16 H4     1s        -0.1782    0.1034    0.1033
       17 H4     2s         0.2300   -0.1606   -0.1677
       18 H4     2px       -0.0000    0.0000    0.0000
       19 H4     2py       -0.0000    0.0000   -0.0000
       20 H4     2pz        0.0013   -0.0151    0.0217
       21 H5     1s        -0.1865    0.0480    0.1613
       22 H5     2s         0.2417   -0.0577   -0.2956
       23 H5     2px       -0.0000   -0.0000   -0.0000
       24 H5     2py        0.0000    0.0000   -0.0000
       25 H5     2pz       -0.0039   -0.0143    0.0076
       26 H6     1s        -0.1865   -0.0480    0.1613
       27 H6     2s         0.2417    0.0577   -0.2956
       28 H6     2px        0.0000    0.0000    0.0000
       29 H6     2py        0.0000    0.0000    0.0000
       30 H6     2pz        0.0039   -0.0143   -0.0076
       31 H7     1s        -0.1782   -0.1034    0.1033
       32 H7     2s         0.2300    0.1606   -0.1677
       33 H7     2px        0.0000   -0.0000    0.0000
       34 H7     2py       -0.0000    0.0000    0.0000
       35 H7     2pz       -0.0013   -0.0151   -0.0217
       36 H8     1s        -0.1638   -0.1716   -0.0303
       37 H8     2s         0.2140    0.2416    0.0407
       38 H8     2px       -0.0000    0.0000    0.0000
       39 H8     2py        0.0000   -0.0000    0.0000
       40 H8     2pz        0.0085   -0.0013   -0.0178
       41 H9     1s        -0.1428   -0.1869   -0.1231
       42 H9     2s         0.1647    0.2377    0.1778
       43 H9     2px        0.0000    0.0000   -0.0000
       44 H9     2py       -0.0000   -0.0000   -0.0000
       45 H9     2pz       -0.0043   -0.0156   -0.0335
       46 H10    1s        -0.1008   -0.1520   -0.1338
       47 H10    2s         0.2065    0.3636    0.4620
       48 H10    2px        0.0000    0.0000    0.0000
       49 H10    2py       -0.0000   -0.0000    0.0000
       50 H10    2pz        0.0248    0.0384    0.0392
--
 
 
++    Molecular charges:
      ------------------
 
      Mulliken charges per centre and basis function type
      ---------------------------------------------------
 
                H1      H2      H3      H4      H5      H6      H7      H8      H9      H10   
      1s       0.8817  0.9688  0.9322  0.9419  0.9368  0.9368  0.9419  0.9322  0.9688  0.8817
      2s       0.0585  0.0686  0.0517  0.0556  0.0545  0.0545  0.0556  0.0517  0.0686  0.0585
      2px      0.0000  0.0000  0.0000  0.0000  0.0000  0.0000  0.0000  0.0000  0.0000  0.0000
      2pz      0.0084  0.0106  0.0102  0.0102  0.0103  0.0103  0.0102  0.0102  0.0106  0.0084
      2py      0.0000  0.0000  0.0000  0.0000  0.0000  0.0000  0.0000  0.0000  0.0000  0.0000
      Total    0.9486  1.0480  0.9941  1.0077  1.0017  1.0017  1.0077  0.9941  1.0480  0.9486
 
      N-E      0.0514 -0.0480  0.0059 -0.0077 -0.0017 -0.0017 -0.0077  0.0059 -0.0480  0.0514
 
      Total electronic charge=   10.000000
 
      Total            charge=   -0.000000
--
 
 
  Input file to MOLDEN was generated!
 
 
++    Static properties:
      ------------------
 
 
      LoProp Charges per center
 

                   H1       H2       H3       H4       H5       H6       H7       H8       H9       H10   
      Nuclear      1.0000   1.0000   1.0000   1.0000   1.0000   1.0000   1.0000   1.0000   1.0000   1.0000
      Electronic  -0.9731  -1.0213  -0.9964  -1.0074  -1.0018  -1.0018  -1.0074  -0.9964  -1.0213  -0.9731
 
      Total        0.0269  -0.0213   0.0036  -0.0074  -0.0018  -0.0018  -0.0074   0.0036  -0.0213   0.0269
--
 
 
++    Natural Bond Order analysis
      ---------------------------
      Based on LoProp computed density
      -------------------------------------------------------------------------------------
      Atom A       Atom B       Bond Order
      -------------------------------------------------------------------------------------
      NBO located      0.951 non-bonded electrons on atom H1        
      NBO located      1.006 non-bonded electrons on atom H3        
      NBO located      1.018 non-bonded electrons on atom H4        
      NBO located      1.012 non-bonded electrons on atom H5        
      NBO located      1.012 non-bonded electrons on atom H6        
      NBO located      1.018 non-bonded electrons on atom H7        
      NBO located      1.006 non-bonded electrons on atom H8        
      NBO located      0.951 non-bonded electrons on atom H10       
      The remaining    2.026 electrons are to be considered as diffuse
--
 
 
++    Molecular properties:
      ---------------------
 
      Charge (e):
                      =   -0.0000
      Dipole Moment (Debye):
      Origin of the operator (Ang)=    0.0000    0.0000    0.0000
                   X= -7.8781E-15               Y= -1.7498E-15               Z=  8.6689E-12           Total=  8.6689E-12
      Quadrupole Moment (Debye*Ang):
      Origin of the operator (Ang)=    0.0000    0.0000    9.1364
                  XX= -2.0932E+01              XY= -9.0275E-30              XZ= -3.2490E-14              YY= -2.0932E+01
                  YZ= -4.8124E-14              ZZ=  2.7234E+00
      In traceless form (Debye*Ang)
                  XX= -1.1828E+01              XY= -1.3541E-29              XZ= -4.8734E-14              YY= -1.1828E+01
                  YZ= -7.2186E-14              ZZ=  2.3655E+01
--
 
 
  Input file to MOLDEN was generated!
 
 ###############################################################################
 ###############################################################################
 ###                                                                         ###
 ###                                                                         ###
 ###    RunFile label nBas                                                   ###
 ###    was used       78 times                                              ###
 ###                                                                         ###
 ###                                                                         ###
 ###############################################################################
 ###############################################################################
--- Stop Module: scf at Tue Nov 12 18:37:41 2024 /rc=_RC_ALL_IS_WELL_ ---
*** files: H10_2.03.LprOrb H10_2.03.LoProp.molden H10_2.03.scf.molden H10_2.03.ScfOrb H10_2.03.scf.h5 xmldump
    saved to directory /home/grierjones/DDCASPT2/hydrogen_comps/H10_chain/H10_2.03

>>> COPY /tmp/H10_2.03/H10_2.03.scf.h5 /home/grierjones/DDCASPT2/hydrogen_comps/H10_chain/H10_2.03/

*** symbolic link created: INPORB -> H10_2.03.ScfOrb
--- Start Module: rasscf at Tue Nov 12 18:37:41 2024 ---
 
()()()()()()()()()()()()()()()()()()()()()()()()()()()()()()()()()()()()()()()()()()()()()()()()()()

                                              &RASSCF

                                   only a single process is used
                       available to each process: 2.0 GB of memory, 1 thread?
()()()()()()()()()()()()()()()()()()()()()()()()()()()()()()()()()()()()()()()()()()()()()()()()()()
 
 
      Header of the ONEINT file:
      --------------------------
      
      Integrals generated by seward 4.2.0  , Tue Nov 12 18:37:40 2024
 
 
      OrdInt status: non-squared
 
 
      Cartesian coordinates in Angstrom:
      -----------------------------------------------------
      No.  Label        X            Y            Z        
      -----------------------------------------------------
       1   H1         0.00000000   0.00000000   0.00000000
       2   H2         0.00000000   0.00000000   2.03030300
       3   H3         0.00000000   0.00000000   4.06060600
       4   H4         0.00000000   0.00000000   6.09090900
       5   H5         0.00000000   0.00000000   8.12121200
       6   H6         0.00000000   0.00000000  10.15151500
       7   H7         0.00000000   0.00000000  12.18181800
       8   H8         0.00000000   0.00000000  14.21212100
       9   H9         0.00000000   0.00000000  16.24242400
      10   H10        0.00000000   0.00000000  18.27272700
      -----------------------------------------------------
      Nuclear repulsion energy =    5.02765371
 
++    Wave function specifications:
      -----------------------------
 
      Number of closed shell electrons           0
      Number of electrons in active shells      10
      Max number of holes in RAS1 space          0
      Max nr of electrons in RAS3 space          0
      Number of inactive orbitals                0
      Number of active orbitals                 10
      Number of secondary orbitals              40
      Spin quantum number                      0.0
      State symmetry                             1
--
 
++    Orbital specifications:
      -----------------------
 
      Symmetry species                           1
                                                 a
      Frozen orbitals                            0
      Inactive orbitals                          0
      Active orbitals                           10
      RAS1 orbitals                              0
      RAS2 orbitals                             10
      RAS3 orbitals                              0
      Secondary orbitals                        40
      Deleted orbitals                           0
      Number of basis functions                 50
--
 
++    CI expansion specifications:
      ----------------------------
 
      Number of CSFs                         19404
      Number of determinants                 31878
      Number of root(s) required                 1
      Root chosen for geometry opt.              1
      CI root used                               1
         
      highest root included in the CI            1
      max. size of the explicit Hamiltonian    500
--
 
++    Optimization specifications:
      ----------------------------
 
      RASSCF algorithm: Conventional
      Maximum number of macro iterations       200
      Maximum number of SX iterations          100
      Threshold for RASSCF energy            0.100E-07
      Threshold for max MO rotation          0.100E+00
      Threshold for max BLB element          0.100E-03
      Level shift parameter                  0.500E+00
      Make Quasi-Newton update
--
 
      The MO-coefficients are taken from the file:
      /home/grierjones/DDCASPT2/hydrogen_comps/H10_chain/H10_2.01/H10_2.01.RasOrb                                                     
      Title: RASSCF average (pseudo-natural) orbitals                                      
 
      Total molecular charge    0.00
 
      ************************************************************************************************************************
      *                                                                                                                      *
      *                                            Wave function control section                                             *
      *                                                                                                                      *
      ************************************************************************************************************************
 
 
                                         RASSCF iterations: Energy and convergence statistics
                                         ----------------------------------------------------
 
      Iter CI   SX   CI       RASSCF       Energy    max ROT     max BLB   max BLB  Level Ln srch  Step   QN   Walltime
          iter iter root      energy       change     param      element    value   shift minimum  type update hh:mm:ss
 Nr of preliminary CI iterations:  12
        1   1    4    1    -5.06545241    0.00E+00   0.30E-02    9  16 1 -0.19E-02*  0.03   0.00    SX    NO    0:00:00
        2   2    4    1    -5.06550511   -0.53E-04* -0.37E-03    1  11 1  0.37E-03*  0.03   0.00    SX    NO    0:00:00
        3   2    3    1    -5.06551939   -0.14E-04*  0.52E-04    2  12 1  0.41E-04   0.03   0.00    SX    NO    0:00:00
        4  38    4    1    -5.06563574   -0.12E-03* -0.21E-02    9  16 1  0.14E-02*  0.02   0.00    SX    NO    0:00:01
        5   9    4    1    -5.06565075   -0.15E-04* -0.49E-03    9  16 1  0.25E-03*  0.02   1.15    QN   YES    0:00:00
        6   9    4    1    -5.06565194   -0.12E-05* -0.21E-03    9  16 1  0.78E-04   0.02   1.07    QN   YES    0:00:00
        7   9    3    1    -5.06565206   -0.12E-06*  0.34E-04    5  17 1 -0.17E-04   0.02   0.95    QN   YES    0:00:00
        8   2    3    1    -5.06565206   -0.17E-08  -0.11E-04    9  16 1  0.73E-05   0.02   0.78    QN   YES    0:00:00
      Convergence after  8 iterations
 
  Dmat in MO in SXCTL bf call to SXHAM                                                                                    
  mat. size =    10x   10
 
        1.6381601669961368
        0.0000000032584412      1.6024535154248547
        0.0001413918440963      0.0000001247357867      1.5381407644236367
       -0.0000000345982305     -0.0002828897743915     -0.0000001836954900      1.4392584801686996
        0.0001079804690783     -0.0000000790616792      0.0003123563140688     -0.0000008034897026      1.3062322179202404
        0.0003309372950763     -0.0000000049498650     -0.0001857801634443      0.0000004046457683     -0.0000027607316435
        0.3902331396714285
       -0.0000003129323034     -0.0006820901118729      0.0000000058401611     -0.0002164411130406      0.0000005585507861
        0.0000001395876219      0.4609128620802955
       -0.0002573211757968     -0.0000004158990945     -0.0008653620997186     -0.0000000040317709      0.0002198624206820
        0.0004151268565826     -0.0000001836561103      0.5673560944061405
        0.0000001138362814     -0.0003273654056699     -0.0000005829185832      0.0006356878116528     -0.0000000059838122
       -0.0000000768559508     -0.0005336701196016     -0.0000007796262130      0.7062501846240612
        0.0000000017691901     -0.0001417187203155     -0.0000003055876189     -0.0000058031981995      0.0000001023119803
       -0.0000000372419260      0.0001134477277624      0.0000000284628444      0.0000507248513112      0.3510025742845378
        9   1    3    1    -5.06565206   -0.30E-09  -0.11E-04    3  25 1 -0.24E-06   0.02   0.78    QN   YES    0:00:00
 
      ************************************************************************************************************************
                                                      Wave function printout:
                       occupation of active orbitals, and spin coupling of open shells (u,d: Spin up or down)
      ************************************************************************************************************************
 
      Note: transformation to natural orbitals
      has been made, which may change the order of the CSFs.
 
      printout of CI-coefficients larger than  0.05 for root  1
      energy=      -5.065652
      conf/sym  1111111111     Coeff  Weight
             1  2222200000  -0.46130 0.21280
            32  2222000200   0.05491 0.00302
            36  2222000020   0.20903 0.04369
            50  222ud00ud0   0.20803 0.04328
            62  22u2d00200   0.06353 0.00404
            64  22u2d0u0d0   0.15743 0.02478
            76  2u22d0ud00  -0.06671 0.00445
            78  2u22du00d0   0.13459 0.01811
            84  2u22d00u0d   0.05935 0.00352
            90  u222du0d00  -0.07179 0.00515
           100  u222d000ud  -0.15211 0.02314
           107  2220200200   0.12074 0.01458
           109  222020u0d0   0.06296 0.00396
           111  2220200020   0.05810 0.00338
           121  22ud20ud00   0.14066 0.01978
           123  22ud2u00d0  -0.06638 0.00441
           134  2u2d202000  -0.05431 0.00295
           135  2u2d2u0d00   0.12951 0.01677
           145  2u2d2000ud   0.07245 0.00525
           153  u22d2u00d0  -0.06263 0.00392
           159  u22d200u0d  -0.10338 0.01069
           164  2202202000   0.09114 0.00831
           165  22022u0d00  -0.05462 0.00298
           178  2ud22ud000   0.10483 0.01099
           181  2ud220ud00  -0.05022 0.00252
           203  u2d220u00d  -0.09367 0.00877
           207  2022220000   0.07034 0.00495
           232  ud222u000d  -0.09162 0.00839
           251  0222200002   0.06923 0.00479
           257  222uu00dd0   0.05903 0.00348
           266  22u2u0d0d0   0.05689 0.00324
           275  2u22ud00d0   0.05469 0.00299
           291  u222u000dd   0.06308 0.00398
          1971  2220000220  -0.09775 0.00955
          2020  22ud00ud20  -0.09488 0.00900
          2069  2u2d0u0d20  -0.08220 0.00676
          2141  u22d000u2d  -0.07028 0.00494
          2168  2202002020  -0.06224 0.00387
          2217  2ud20ud020  -0.06594 0.00435
          2290  u2d200u02d  -0.05577 0.00311
          2389  ud220u002d  -0.05280 0.00279
          2465  22u0d0u2d0  -0.07455 0.00556
          2514  2u20du02d0  -0.05718 0.00327
          2585  u220d002ud  -0.05709 0.00326
          2612  220ud02ud0  -0.05942 0.00353
          2661  2udududud0  -0.07095 0.00503
          2738  u2dud0uudd  -0.05054 0.00255
          2913  2uudduudd0  -0.06770 0.00458
          2984  u2udd0udud  -0.05321 0.00283
          3033  uu2ddu0dud  -0.06216 0.00386
 
      Natural orbitals and occupation numbers for root  1
      sym 1:   1.638161   1.602455   1.538142   1.439259   1.306232   0.390232   0.460911   0.567356   0.706251   0.351002

 
      ************************************************************************************************************************
      *                                                                                                                      *
      *                                                    Final results                                                     *
      *                                                                                                                      *
      ************************************************************************************************************************
 
 
++    Wave function specifications:
      -----------------------------
 
      Number of closed shell electrons           0
      Number of electrons in active shells      10
      Max number of holes in RAS1 space          0
      Max nr of electrons in RAS3 space          0
      Number of inactive orbitals                0
      Number of active orbitals                 10
      Number of secondary orbitals              40
      Spin quantum number                      0.0
      State symmetry                             1
--
 
++    Orbital specifications:
      -----------------------
 
      Symmetry species                           1
                                                 a
      Frozen orbitals                            0
      Inactive orbitals                          0
      Active orbitals                           10
      RAS1 orbitals                              0
      RAS2 orbitals                             10
      RAS3 orbitals                              0
      Secondary orbitals                        40
      Deleted orbitals                           0
      Number of basis functions                 50
--
 
++    CI expansion specifications:
      ----------------------------
 
      Number of CSFs                         19404
      Number of determinants                 31878
      Number of root(s) required                 1
      CI root used                               1
      highest root included in the CI            1
      Root passed to geometry opt.               1
--
 
++    Final optimization conditions:
      ------------------------------
 
      Average CI energy                              -5.06565206
      RASSCF energy for state  1                     -5.06565206
      Super-CI energy                                -0.00000000
      RASSCF energy change                            0.00000000
      Max change in MO coefficients              -0.754E-05
      Max non-diagonal density matrix element    -0.110E-04
      Maximum BLB matrix element                 -0.236E-06
      (orbital pair   3,  25 in symmetry   1)
      Norm of electronic gradient            0.888E-06
--
 
 
      Final state energy(ies):
      ------------------------
 
::    RASSCF root number  1 Total energy:     -5.06565206
 
++    Molecular orbitals:
      -------------------
 
      Pseudonatural active orbitals and approximate occupation numbers
 
 
 
 
      Molecular orbitals for symmetry species 1: a  
 
 
      Orbital                1         2         3         4         5         6         7         8         9        10
      Energy            0.0000    0.0000    0.0000    0.0000    0.0000    0.0000    0.0000    0.0000    0.0000    0.0000
      Occ. No.          1.6382    1.6025    1.5381    1.4393    1.3062    0.3902    0.4609    0.5674    0.7063    0.3510
 
    1 H1     1s         0.1322    0.2514    0.3372   -0.3581    0.2719    0.3606   -0.4527   -0.4459   -0.3129    0.1991
    2 H1     2s         0.0079    0.0160    0.0239   -0.0285    0.0240    0.0442   -0.0522   -0.0486   -0.0327    0.0256
    3 H1     2px        0.0000   -0.0000   -0.0000   -0.0000    0.0000    0.0000   -0.0000    0.0000   -0.0000    0.0000
    4 H1     2py        0.0000    0.0000   -0.0000    0.0000    0.0000   -0.0000   -0.0000   -0.0000   -0.0000   -0.0000
    5 H1     2pz        0.0026    0.0043    0.0047   -0.0037    0.0020    0.0034   -0.0034   -0.0025   -0.0014    0.0022
    6 H2     1s         0.1910    0.3295    0.3739   -0.3096    0.1656   -0.5199    0.5114    0.3405    0.1270   -0.3283
    7 H2     2s         0.0093    0.0224    0.0377   -0.0466    0.0365   -0.0928    0.0788    0.0373    0.0010   -0.0630
    8 H2     2px       -0.0000    0.0000    0.0000   -0.0000    0.0000   -0.0000   -0.0000   -0.0000   -0.0000   -0.0000
    9 H2     2py        0.0000   -0.0000   -0.0000   -0.0000   -0.0000    0.0000    0.0000   -0.0000    0.0000    0.0000
   10 H2     2pz        0.0016    0.0010   -0.0024    0.0059   -0.0060    0.0011   -0.0002    0.0023    0.0037    0.0007
   11 H3     1s         0.2743    0.3271    0.0952    0.2517   -0.3880    0.5330   -0.1834    0.2788    0.4314    0.4552
   12 H3     2s         0.0166    0.0184   -0.0028    0.0379   -0.0528    0.1002   -0.0408    0.0339    0.0597    0.0857
   13 H3     2px       -0.0000    0.0000    0.0000   -0.0000   -0.0000    0.0000    0.0000    0.0000    0.0000    0.0000
   14 H3     2py        0.0000    0.0000    0.0000    0.0000    0.0000    0.0000   -0.0000   -0.0000    0.0000   -0.0000
   15 H3     2pz        0.0012   -0.0009   -0.0047    0.0058   -0.0031    0.0023   -0.0018   -0.0018   -0.0015    0.0021
   16 H4     1s         0.3104    0.2721   -0.0790    0.3651   -0.3015   -0.4153   -0.1517   -0.4774   -0.3011   -0.5280
   17 H4     2s         0.0164    0.0221    0.0020    0.0366   -0.0484   -0.0726   -0.0346   -0.0772   -0.0325   -0.1026
   18 H4     2px        0.0000   -0.0000    0.0000    0.0000    0.0000    0.0000   -0.0000   -0.0000    0.0000   -0.0000
   19 H4     2py       -0.0000   -0.0000    0.0000    0.0000   -0.0000   -0.0000   -0.0000   -0.0000   -0.0000   -0.0000
   20 H4     2pz        0.0009   -0.0027   -0.0048   -0.0006    0.0061    0.0013    0.0013    0.0007   -0.0031    0.0018
   21 H5     1s         0.3407    0.0635   -0.3419    0.1081    0.3913    0.1284    0.4888    0.1838   -0.4188    0.5725
   22 H5     2s         0.0193   -0.0017   -0.0305    0.0010    0.0563    0.0293    0.0823    0.0397   -0.0534    0.1100
   23 H5     2px       -0.0000    0.0000   -0.0000    0.0000    0.0000   -0.0000    0.0000    0.0000   -0.0000    0.0000
   24 H5     2py       -0.0000   -0.0000   -0.0000    0.0000   -0.0000   -0.0000   -0.0000   -0.0000    0.0000   -0.0000
   25 H5     2pz        0.0001   -0.0038   -0.0022   -0.0048    0.0052    0.0005    0.0010    0.0020    0.0024    0.0020
   26 H6     1s         0.3407   -0.0635   -0.3419   -0.1081    0.3913    0.1284   -0.4888    0.1838    0.4188   -0.5725
   27 H6     2s         0.0193    0.0017   -0.0305   -0.0010    0.0563    0.0293   -0.0823    0.0397    0.0534   -0.1100
   28 H6     2px        0.0000    0.0000    0.0000   -0.0000   -0.0000    0.0000   -0.0000    0.0000    0.0000   -0.0000
   29 H6     2py        0.0000    0.0000    0.0000   -0.0000    0.0000   -0.0000    0.0000    0.0000    0.0000   -0.0000
   30 H6     2pz       -0.0001   -0.0038    0.0022   -0.0048   -0.0052   -0.0005    0.0010   -0.0020    0.0024    0.0020
   31 H7     1s         0.3104   -0.2721   -0.0790   -0.3651   -0.3015   -0.4153    0.1517   -0.4774    0.3011    0.5280
   32 H7     2s         0.0164   -0.0221    0.0020   -0.0366   -0.0484   -0.0726    0.0346   -0.0772    0.0325    0.1026
   33 H7     2px       -0.0000    0.0000   -0.0000    0.0000   -0.0000   -0.0000    0.0000    0.0000   -0.0000    0.0000
   34 H7     2py        0.0000    0.0000   -0.0000    0.0000   -0.0000   -0.0000   -0.0000   -0.0000   -0.0000    0.0000
   35 H7     2pz       -0.0009   -0.0027    0.0048   -0.0006   -0.0061   -0.0013    0.0013   -0.0007   -0.0031    0.0018
   36 H8     1s         0.2743   -0.3271    0.0952   -0.2517   -0.3880    0.5330    0.1834    0.2788   -0.4314   -0.4552
   37 H8     2s         0.0166   -0.0184   -0.0028   -0.0379   -0.0528    0.1002    0.0408    0.0339   -0.0597   -0.0857
   38 H8     2px        0.0000    0.0000   -0.0000   -0.0000    0.0000    0.0000   -0.0000    0.0000   -0.0000   -0.0000
   39 H8     2py        0.0000   -0.0000   -0.0000   -0.0000   -0.0000   -0.0000    0.0000   -0.0000    0.0000   -0.0000
   40 H8     2pz       -0.0012   -0.0009    0.0047    0.0058    0.0031   -0.0023   -0.0018    0.0018   -0.0015    0.0021
   41 H9     1s         0.1910   -0.3295    0.3739    0.3096    0.1656   -0.5199   -0.5114    0.3405   -0.1270    0.3283
   42 H9     2s         0.0093   -0.0224    0.0377    0.0466    0.0365   -0.0928   -0.0788    0.0373   -0.0010    0.0630
   43 H9     2px       -0.0000    0.0000    0.0000    0.0000   -0.0000    0.0000    0.0000    0.0000   -0.0000   -0.0000
   44 H9     2py        0.0000   -0.0000   -0.0000   -0.0000   -0.0000    0.0000    0.0000   -0.0000   -0.0000    0.0000
   45 H9     2pz       -0.0016    0.0010    0.0024    0.0059    0.0060   -0.0011   -0.0002   -0.0023    0.0037    0.0007
   46 H10    1s         0.1322   -0.2514    0.3372    0.3581    0.2719    0.3606    0.4527   -0.4459    0.3129   -0.1991
   47 H10    2s         0.0079   -0.0160    0.0239    0.0285    0.0240    0.0442    0.0522   -0.0486    0.0327   -0.0256
   48 H10    2px        0.0000   -0.0000   -0.0000    0.0000    0.0000    0.0000   -0.0000   -0.0000   -0.0000   -0.0000
   49 H10    2py        0.0000   -0.0000   -0.0000   -0.0000    0.0000   -0.0000   -0.0000   -0.0000    0.0000    0.0000
   50 H10    2pz       -0.0026    0.0043   -0.0047   -0.0037   -0.0020   -0.0034   -0.0034    0.0025   -0.0014    0.0022
 
 
      Orbital               11        12        13        14        15        16        17        18        19        20
      Energy            0.3225    0.3375    0.3657    0.4115    0.4791    0.5674    0.6723    0.7115    0.7307    0.7598
      Occ. No.          0.0000    0.0000    0.0000    0.0000    0.0000    0.0000    0.0000    0.0000    0.0000    0.0000
 
    1 H1     1s        -0.0716    0.0974    0.0595    0.0286   -0.1377    0.2269   -0.2604    0.0277   -0.0873   -0.0000
    2 H1     2s         0.2083   -0.3766   -0.4879    0.5496   -0.5725    0.5411   -0.4459   -0.0197   -0.1968   -0.0000
    3 H1     2px       -0.0000   -0.0000   -0.0000    0.0000   -0.0000    0.0000    0.0000    0.0000    0.0000   -0.0660
    4 H1     2py       -0.0000    0.0000   -0.0000   -0.0000    0.0000    0.0000    0.0000   -0.0000    0.0000   -0.0842
    5 H1     2pz       -0.0223    0.0360    0.0384   -0.0346    0.0340   -0.0467    0.0739   -0.1035   -0.0665    0.0000
    6 H2     1s        -0.1379    0.1942    0.1542   -0.0777    0.0512   -0.1189    0.2411    0.0174    0.1442    0.0000
    7 H2     2s         0.1600   -0.2276   -0.1582   -0.0403    0.3297   -0.6255    0.8230    0.0674    0.4456    0.0000
    8 H2     2px       -0.0000    0.0000    0.0000    0.0000   -0.0000    0.0000    0.0000   -0.0000    0.0000   -0.1272
    9 H2     2py       -0.0000    0.0000    0.0000   -0.0000    0.0000    0.0000    0.0000   -0.0000    0.0000   -0.1621
   10 H2     2pz        0.0014   -0.0121   -0.0303    0.0430   -0.0370    0.0114    0.0253    0.1643    0.1814   -0.0000
   11 H3     1s        -0.1417    0.1321   -0.0045    0.1030   -0.0611   -0.0215   -0.0445   -0.0588   -0.0954   -0.0000
   12 H3     2s         0.2166   -0.2500   -0.0525   -0.2582    0.4587   -0.3255   -0.1884   -0.1811   -0.3348   -0.0000
   13 H3     2px       -0.0000    0.0000    0.0000    0.0000   -0.0000    0.0000    0.0000    0.0000    0.0000   -0.1794
   14 H3     2py       -0.0000    0.0000    0.0000    0.0000    0.0000   -0.0000    0.0000   -0.0000    0.0000   -0.2287
   15 H3     2pz       -0.0058   -0.0036   -0.0192    0.0168    0.0051   -0.0041   -0.0869   -0.2385   -0.2819    0.0000
   16 H4     1s        -0.1596    0.1054   -0.0684    0.1106   -0.0214    0.0438   -0.1557    0.0726   -0.0631    0.0000
   17 H4     2s         0.2337   -0.1587    0.1732   -0.3716    0.0936    0.4936   -0.6972    0.2353   -0.1919    0.0000
   18 H4     2px       -0.0000    0.0000    0.0000    0.0000    0.0000   -0.0000    0.0000    0.0000    0.0000   -0.2166
   19 H4     2py        0.0000   -0.0000    0.0000    0.0000    0.0000   -0.0000    0.0000   -0.0000    0.0000   -0.2761
   20 H4     2pz       -0.0013   -0.0130   -0.0189   -0.0060    0.0259   -0.0039    0.0490    0.3168    0.2724    0.0000
   21 H5     1s        -0.1673    0.0283   -0.1413    0.0401    0.0477    0.0395    0.1059   -0.0321    0.2186    0.0000
   22 H5     2s         0.2456   -0.0625    0.2917   -0.1764   -0.3861    0.4201    0.4894   -0.1137    0.6799    0.0000
   23 H5     2px        0.0000    0.0000   -0.0000    0.0000    0.0000   -0.0000   -0.0000    0.0000    0.0000   -0.2363
   24 H5     2py        0.0000   -0.0000   -0.0000    0.0000   -0.0000    0.0000    0.0000   -0.0000    0.0000   -0.3012
   25 H5     2pz       -0.0016   -0.0144   -0.0085   -0.0244    0.0159    0.0042    0.0271   -0.3709   -0.1143   -0.0000
   26 H6     1s        -0.1673   -0.0283   -0.1413   -0.0401    0.0477   -0.0395    0.1059   -0.0321   -0.2186   -0.0000
   27 H6     2s         0.2456    0.0625    0.2917    0.1764   -0.3861   -0.4201    0.4894   -0.1137   -0.6799   -0.0000
   28 H6     2px        0.0000    0.0000    0.0000   -0.0000   -0.0000    0.0000   -0.0000    0.0000    0.0000   -0.2363
   29 H6     2py       -0.0000    0.0000   -0.0000    0.0000   -0.0000    0.0000   -0.0000   -0.0000    0.0000   -0.3012
   30 H6     2pz        0.0016   -0.0144    0.0085   -0.0244   -0.0159    0.0042   -0.0271    0.3709   -0.1143    0.0000
   31 H7     1s        -0.1596   -0.1054   -0.0684   -0.1106   -0.0214   -0.0438   -0.1557    0.0726    0.0631    0.0000
   32 H7     2s         0.2337    0.1587    0.1732    0.3716    0.0936   -0.4936   -0.6972    0.2353    0.1919    0.0000
   33 H7     2px        0.0000    0.0000   -0.0000    0.0000   -0.0000   -0.0000   -0.0000    0.0000    0.0000   -0.2166
   34 H7     2py       -0.0000   -0.0000   -0.0000   -0.0000   -0.0000    0.0000    0.0000   -0.0000   -0.0000   -0.2761
   35 H7     2pz        0.0013   -0.0130    0.0189   -0.0060   -0.0259   -0.0039   -0.0490   -0.3168    0.2724    0.0000
   36 H8     1s        -0.1417   -0.1321   -0.0045   -0.1030   -0.0611    0.0215   -0.0445   -0.0588    0.0954    0.0000
   37 H8     2s         0.2166    0.2500   -0.0525    0.2582    0.4587    0.3255   -0.1884   -0.1811    0.3348    0.0000
   38 H8     2px       -0.0000    0.0000   -0.0000   -0.0000   -0.0000   -0.0000   -0.0000    0.0000    0.0000   -0.1794
   39 H8     2py       -0.0000   -0.0000   -0.0000   -0.0000   -0.0000    0.0000    0.0000   -0.0000   -0.0000   -0.2287
   40 H8     2pz        0.0058   -0.0036    0.0192    0.0168   -0.0051   -0.0041    0.0869    0.2385   -0.2819   -0.0000
   41 H9     1s        -0.1379   -0.1942    0.1542    0.0777    0.0512    0.1189    0.2411    0.0174   -0.1442   -0.0000
   42 H9     2s         0.1600    0.2276   -0.1582    0.0403    0.3297    0.6255    0.8230    0.0674   -0.4456   -0.0000
   43 H9     2px       -0.0000   -0.0000    0.0000    0.0000   -0.0000   -0.0000   -0.0000    0.0000    0.0000   -0.1272
   44 H9     2py       -0.0000   -0.0000   -0.0000   -0.0000    0.0000   -0.0000    0.0000   -0.0000   -0.0000   -0.1621
   45 H9     2pz       -0.0014   -0.0121    0.0303    0.0430    0.0370    0.0114   -0.0253   -0.1643    0.1814    0.0000
   46 H10    1s        -0.0716   -0.0974    0.0595   -0.0286   -0.1377   -0.2269   -0.2604    0.0277    0.0873    0.0000
   47 H10    2s         0.2083    0.3766   -0.4879   -0.5496   -0.5725   -0.5411   -0.4459   -0.0197    0.1968    0.0000
   48 H10    2px       -0.0000   -0.0000    0.0000    0.0000    0.0000   -0.0000   -0.0000    0.0000    0.0000   -0.0660
   49 H10    2py       -0.0000   -0.0000   -0.0000   -0.0000    0.0000   -0.0000    0.0000   -0.0000   -0.0000   -0.0842
   50 H10    2pz        0.0223    0.0360   -0.0384   -0.0346   -0.0340   -0.0467   -0.0739    0.1035   -0.0665   -0.0000
 
 
      Orbital               21        22        23        24        25        26        27        28        29        30
      Energy            0.7598    0.7630    0.7706    0.7807    0.7807    0.8148    0.8148    0.8608    0.8608    0.9166
      Occ. No.          0.0000    0.0000    0.0000    0.0000    0.0000    0.0000    0.0000    0.0000    0.0000    0.0000
 
    1 H1     1s         0.0000    0.2567   -0.1985    0.0000    0.0000    0.0000    0.0000   -0.0000    0.0000   -0.0000
    2 H1     2s         0.0000    0.2063   -0.1164    0.0000    0.0000   -0.0000   -0.0000    0.0000    0.0000   -0.0000
    3 H1     2px       -0.0842   -0.0000   -0.0000    0.1485   -0.1476   -0.2624    0.1461   -0.3326   -0.1666    0.3865
    4 H1     2py        0.0660   -0.0000    0.0000    0.1476    0.1485   -0.1461   -0.2624   -0.1666    0.3326    0.1509
    5 H1     2pz       -0.0000   -0.3396    0.3251   -0.0000   -0.0000   -0.0000    0.0000   -0.0000   -0.0000    0.0000
    6 H2     1s        -0.0000   -0.2600    0.1940   -0.0000   -0.0000   -0.0000   -0.0000    0.0000   -0.0000    0.0000
    7 H2     2s        -0.0000   -0.6306    0.4383   -0.0000   -0.0000    0.0000    0.0000    0.0000   -0.0000   -0.0000
    8 H2     2px       -0.1621   -0.0000   -0.0000    0.2504   -0.2489   -0.3444    0.1917   -0.2777   -0.1391    0.1131
    9 H2     2py        0.1272   -0.0000    0.0000    0.2489    0.2504   -0.1917   -0.3444   -0.1391    0.2777    0.0442
   10 H2     2pz        0.0000    0.3025   -0.3148    0.0000    0.0000   -0.0000   -0.0000    0.0000    0.0000   -0.0000
   11 H3     1s         0.0000    0.2216   -0.2081    0.0000    0.0000   -0.0000    0.0000    0.0000   -0.0000    0.0000
   12 H3     2s         0.0000    0.6391   -0.5717    0.0000    0.0000    0.0000    0.0000   -0.0000    0.0000    0.0000
   13 H3     2px       -0.2287   -0.0000   -0.0000    0.2744   -0.2728   -0.1897    0.1056    0.1022    0.0512   -0.3560
   14 H3     2py        0.1794   -0.0000    0.0000    0.2728    0.2744   -0.1056   -0.1897    0.0512   -0.1022   -0.1390
   15 H3     2pz       -0.0000   -0.1466    0.1624    0.0000   -0.0000    0.0000    0.0000   -0.0000   -0.0000    0.0000
   16 H4     1s        -0.0000   -0.0678    0.1563    0.0000   -0.0000   -0.0000   -0.0000    0.0000   -0.0000    0.0000
   17 H4     2s        -0.0000   -0.1718    0.4328    0.0000   -0.0000   -0.0000   -0.0000    0.0000   -0.0000   -0.0000
   18 H4     2px       -0.2761   -0.0000   -0.0000    0.2104   -0.2092    0.0954   -0.0531    0.3602    0.1804   -0.2138
   19 H4     2py        0.2166   -0.0000    0.0000    0.2092    0.2104    0.0531    0.0954    0.1804   -0.3602   -0.0834
   20 H4     2pz        0.0000    0.0072    0.0404   -0.0000   -0.0000   -0.0000   -0.0000    0.0000    0.0000   -0.0000
   21 H5     1s         0.0000   -0.0846   -0.0546    0.0000    0.0000    0.0000    0.0000   -0.0000   -0.0000    0.0000
   22 H5     2s         0.0000   -0.2839   -0.1560   -0.0000    0.0000   -0.0000    0.0000    0.0000   -0.0000    0.0000
   23 H5     2px       -0.3012   -0.0000   -0.0000    0.0782   -0.0778    0.3158   -0.1758    0.1962    0.0983    0.2968
   24 H5     2py        0.2363   -0.0000    0.0000    0.0778    0.0782    0.1758    0.3158    0.0983   -0.1962    0.1159
   25 H5     2pz        0.0000    0.0187   -0.1745    0.0000    0.0000    0.0000   -0.0000    0.0000    0.0000    0.0000
   26 H6     1s         0.0000    0.0846   -0.0546    0.0000   -0.0000    0.0000   -0.0000    0.0000   -0.0000   -0.0000
   27 H6     2s         0.0000    0.2839   -0.1560    0.0000    0.0000    0.0000   -0.0000   -0.0000    0.0000   -0.0000
   28 H6     2px       -0.3012   -0.0000   -0.0000   -0.0782    0.0778    0.3158   -0.1758   -0.1962   -0.0983    0.2968
   29 H6     2py        0.2363   -0.0000    0.0000   -0.0778   -0.0782    0.1758    0.3158   -0.0983    0.1962    0.1159
   30 H6     2pz       -0.0000    0.0187    0.1745    0.0000   -0.0000    0.0000    0.0000   -0.0000    0.0000    0.0000
   31 H7     1s        -0.0000    0.0678    0.1563    0.0000    0.0000    0.0000    0.0000    0.0000   -0.0000    0.0000
   32 H7     2s        -0.0000    0.1718    0.4328    0.0000   -0.0000   -0.0000    0.0000   -0.0000   -0.0000    0.0000
   33 H7     2px       -0.2761   -0.0000   -0.0000   -0.2104    0.2092    0.0954   -0.0531   -0.3602   -0.1804   -0.2138
   34 H7     2py        0.2166   -0.0000    0.0000   -0.2092   -0.2104    0.0531    0.0954   -0.1804    0.3602   -0.0834
   35 H7     2pz        0.0000    0.0072   -0.0404   -0.0000   -0.0000   -0.0000   -0.0000    0.0000   -0.0000   -0.0000
   36 H8     1s         0.0000   -0.2216   -0.2081   -0.0000    0.0000    0.0000   -0.0000   -0.0000    0.0000   -0.0000
   37 H8     2s         0.0000   -0.6391   -0.5717   -0.0000    0.0000   -0.0000   -0.0000    0.0000   -0.0000   -0.0000
   38 H8     2px       -0.2287   -0.0000    0.0000   -0.2744    0.2728   -0.1897    0.1056   -0.1022   -0.0512   -0.3560
   39 H8     2py        0.1794   -0.0000    0.0000   -0.2728   -0.2744   -0.1056   -0.1897   -0.0512    0.1022   -0.1390
   40 H8     2pz        0.0000   -0.1466   -0.1624   -0.0000    0.0000    0.0000    0.0000   -0.0000   -0.0000    0.0000
   41 H9     1s        -0.0000    0.2600    0.1940    0.0000   -0.0000    0.0000   -0.0000    0.0000    0.0000    0.0000
   42 H9     2s        -0.0000    0.6306    0.4383    0.0000   -0.0000    0.0000    0.0000   -0.0000    0.0000    0.0000
   43 H9     2px       -0.1621    0.0000    0.0000   -0.2504    0.2489   -0.3444    0.1917    0.2777    0.1391    0.1131
   44 H9     2py        0.1272   -0.0000    0.0000   -0.2489   -0.2504   -0.1917   -0.3444    0.1391   -0.2777    0.0442
   45 H9     2pz       -0.0000    0.3025    0.3148    0.0000   -0.0000   -0.0000   -0.0000   -0.0000    0.0000   -0.0000
   46 H10    1s         0.0000   -0.2567   -0.1985   -0.0000    0.0000    0.0000   -0.0000   -0.0000   -0.0000   -0.0000
   47 H10    2s         0.0000   -0.2063   -0.1164   -0.0000    0.0000   -0.0000   -0.0000    0.0000   -0.0000    0.0000
   48 H10    2px       -0.0842    0.0000    0.0000   -0.1485    0.1476   -0.2624    0.1461    0.3326    0.1666    0.3865
   49 H10    2py        0.0660   -0.0000    0.0000   -0.1476   -0.1485   -0.1461   -0.2624    0.1666   -0.3326    0.1509
   50 H10    2pz        0.0000   -0.3396   -0.3251   -0.0000    0.0000   -0.0000    0.0000    0.0000   -0.0000    0.0000
 
 
      Orbital               31        32        33        34        35        36        37        38        39        40
      Energy            0.9166    0.9808    0.9808    1.0465    1.0465    1.1087    1.1087    1.1605    1.1605    1.1948
      Occ. No.          0.0000    0.0000    0.0000    0.0000    0.0000    0.0000    0.0000    0.0000    0.0000    0.0000
 
    1 H1     1s        -0.0000   -0.0000   -0.0000   -0.0000   -0.0000    0.0000   -0.0000   -0.0000   -0.0000    0.0000
    2 H1     2s        -0.0000   -0.0000   -0.0000    0.0000    0.0000   -0.0000   -0.0000    0.0000   -0.0000   -0.0000
    3 H1     2px        0.1509    0.4244   -0.0569   -0.2512    0.3222    0.2251    0.2680   -0.0625    0.2490    0.1325
    4 H1     2py       -0.3865   -0.0569   -0.4244    0.3222    0.2512   -0.2680    0.2251    0.2490    0.0625   -0.0313
    5 H1     2pz       -0.0000   -0.0000   -0.0000    0.0000   -0.0000   -0.0000   -0.0000    0.0000   -0.0000   -0.0000
    6 H2     1s         0.0000    0.0000   -0.0000   -0.0000    0.0000    0.0000   -0.0000   -0.0000    0.0000    0.0000
    7 H2     2s         0.0000    0.0000    0.0000   -0.0000   -0.0000    0.0000    0.0000   -0.0000    0.0000    0.0000
    8 H2     2px        0.0442   -0.1204    0.0161    0.2082   -0.2670   -0.2944   -0.3504    0.1050   -0.4184   -0.2538
    9 H2     2py       -0.1131    0.0161    0.1204   -0.2670   -0.2082    0.3504   -0.2944   -0.4184   -0.1050    0.0599
   10 H2     2pz       -0.0000   -0.0000   -0.0000   -0.0000   -0.0000    0.0000    0.0000   -0.0000    0.0000    0.0000
   11 H3     1s        -0.0000   -0.0000   -0.0000    0.0000    0.0000   -0.0000   -0.0000    0.0000   -0.0000   -0.0000
   12 H3     2s        -0.0000   -0.0000   -0.0000    0.0000   -0.0000   -0.0000   -0.0000    0.0000   -0.0000   -0.0000
   13 H3     2px       -0.1390   -0.3930    0.0527    0.0799   -0.1024    0.1592    0.1895   -0.1138    0.4538    0.3538
   14 H3     2py        0.3560    0.0527    0.3930   -0.1024   -0.0799   -0.1895    0.1592    0.4538    0.1138   -0.0835
   15 H3     2pz        0.0000    0.0000    0.0000   -0.0000    0.0000    0.0000    0.0000    0.0000    0.0000    0.0000
   16 H4     1s        -0.0000   -0.0000    0.0000   -0.0000   -0.0000    0.0000   -0.0000   -0.0000    0.0000   -0.0000
   17 H4     2s         0.0000    0.0000   -0.0000   -0.0000   -0.0000    0.0000    0.0000   -0.0000    0.0000    0.0000
   18 H4     2px       -0.0834    0.2335   -0.0313   -0.2735    0.3508    0.0844    0.1005    0.0869   -0.3463   -0.4250
   19 H4     2py        0.2138   -0.0313   -0.2335    0.3508    0.2735   -0.1005    0.0844   -0.3463   -0.0869    0.1003
   20 H4     2pz       -0.0000   -0.0000    0.0000    0.0000   -0.0000   -0.0000   -0.0000   -0.0000   -0.0000   -0.0000
   21 H5     1s         0.0000   -0.0000    0.0000    0.0000   -0.0000    0.0000    0.0000    0.0000    0.0000   -0.0000
   22 H5     2s        -0.0000    0.0000   -0.0000   -0.0000    0.0000   -0.0000    0.0000    0.0000    0.0000    0.0000
   23 H5     2px        0.1159    0.3273   -0.0439    0.1484   -0.1904   -0.2710   -0.3226   -0.0323    0.1286    0.4620
   24 H5     2py       -0.2968   -0.0439   -0.3273   -0.1904   -0.1484    0.3226   -0.2710    0.1286    0.0323   -0.1091
   25 H5     2pz       -0.0000   -0.0000   -0.0000   -0.0000   -0.0000   -0.0000    0.0000    0.0000    0.0000    0.0000
   26 H6     1s         0.0000   -0.0000   -0.0000    0.0000   -0.0000    0.0000   -0.0000   -0.0000   -0.0000    0.0000
   27 H6     2s        -0.0000   -0.0000    0.0000    0.0000   -0.0000    0.0000   -0.0000   -0.0000   -0.0000   -0.0000
   28 H6     2px        0.1159   -0.3273    0.0439    0.1484   -0.1904    0.2710    0.3226   -0.0323    0.1286   -0.4620
   29 H6     2py       -0.2968    0.0439    0.3273   -0.1904   -0.1484   -0.3226    0.2710    0.1286    0.0323    0.1091
   30 H6     2pz        0.0000    0.0000   -0.0000    0.0000    0.0000    0.0000   -0.0000    0.0000    0.0000    0.0000
   31 H7     1s         0.0000   -0.0000    0.0000   -0.0000   -0.0000   -0.0000    0.0000    0.0000    0.0000   -0.0000
   32 H7     2s        -0.0000    0.0000    0.0000   -0.0000    0.0000   -0.0000    0.0000    0.0000    0.0000   -0.0000
   33 H7     2px       -0.0834   -0.2335    0.0313   -0.2735    0.3508   -0.0844   -0.1005    0.0869   -0.3463    0.4250
   34 H7     2py        0.2138    0.0313    0.2335    0.3508    0.2735    0.1005   -0.0844   -0.3463   -0.0869   -0.1003
   35 H7     2pz       -0.0000   -0.0000   -0.0000   -0.0000   -0.0000   -0.0000   -0.0000   -0.0000   -0.0000   -0.0000
   36 H8     1s        -0.0000   -0.0000    0.0000    0.0000    0.0000    0.0000   -0.0000    0.0000   -0.0000    0.0000
   37 H8     2s         0.0000    0.0000   -0.0000    0.0000   -0.0000    0.0000   -0.0000   -0.0000   -0.0000    0.0000
   38 H8     2px       -0.1390    0.3930   -0.0527    0.0799   -0.1024   -0.1592   -0.1895   -0.1138    0.4538   -0.3538
   39 H8     2py        0.3560   -0.0527   -0.3930   -0.1024   -0.0799    0.1895   -0.1592    0.4538    0.1138    0.0835
   40 H8     2pz       -0.0000    0.0000   -0.0000   -0.0000    0.0000   -0.0000    0.0000    0.0000    0.0000    0.0000
   41 H9     1s        -0.0000    0.0000   -0.0000    0.0000   -0.0000   -0.0000    0.0000    0.0000    0.0000   -0.0000
   42 H9     2s         0.0000   -0.0000    0.0000   -0.0000   -0.0000   -0.0000    0.0000    0.0000    0.0000   -0.0000
   43 H9     2px        0.0442    0.1204   -0.0161    0.2082   -0.2670    0.2944    0.3504    0.1050   -0.4184    0.2538
   44 H9     2py       -0.1131   -0.0161   -0.1204   -0.2670   -0.2082   -0.3504    0.2944   -0.4184   -0.1050   -0.0599
   45 H9     2pz        0.0000    0.0000    0.0000    0.0000    0.0000    0.0000   -0.0000   -0.0000   -0.0000    0.0000
   46 H10    1s         0.0000    0.0000   -0.0000    0.0000   -0.0000    0.0000   -0.0000   -0.0000    0.0000    0.0000
   47 H10    2s        -0.0000    0.0000    0.0000   -0.0000    0.0000    0.0000   -0.0000   -0.0000   -0.0000    0.0000
   48 H10    2px        0.1509   -0.4244    0.0569   -0.2512    0.3222   -0.2251   -0.2680   -0.0625    0.2490   -0.1325
   49 H10    2py       -0.3865    0.0569    0.4244    0.3222    0.2512    0.2680   -0.2251    0.2490    0.0625    0.0313
   50 H10    2pz        0.0000   -0.0000   -0.0000   -0.0000   -0.0000   -0.0000   -0.0000   -0.0000   -0.0000   -0.0000
 
 
      Orbital               41        42        43        44        45        46        47        48        49        50
      Energy            1.1948    1.2170    1.2411    1.2654    1.3204    1.3406    1.4598    1.5927    1.7163    1.8057
      Occ. No.          0.0000    0.0000    0.0000    0.0000    0.0000    0.0000    0.0000    0.0000    0.0000    0.0000
 
    1 H1     1s         0.0000   -0.2393    0.0666   -0.3222    0.0848    0.2609   -0.2088    0.1830   -0.1407    0.0775
    2 H1     2s         0.0000   -0.3892    0.1255   -0.4962    0.1200    0.3721   -0.2393    0.1646   -0.1035    0.0501
    3 H1     2px       -0.0313   -0.0000    0.0000   -0.0000   -0.0000    0.0000   -0.0000   -0.0000   -0.0000   -0.0000
    4 H1     2py       -0.1325   -0.0000   -0.0000    0.0000   -0.0000   -0.0000    0.0000   -0.0000    0.0000   -0.0000
    5 H1     2pz        0.0000   -0.3031    0.2494   -0.3948   -0.0282    0.4933   -0.4608    0.3937   -0.2893    0.1538
    6 H2     1s        -0.0000    0.5911   -0.0541    0.8174   -0.3421   -0.4900    0.2108   -0.0648   -0.0227    0.0374
    7 H2     2s        -0.0000    0.8861    0.0138    1.1851   -0.5528   -0.5863    0.2070   -0.0888    0.0342   -0.0110
    8 H2     2px        0.0599    0.0000    0.0000    0.0000   -0.0000   -0.0000    0.0000   -0.0000    0.0000   -0.0000
    9 H2     2py        0.2538    0.0000    0.0000    0.0000    0.0000    0.0000   -0.0000   -0.0000    0.0000   -0.0000
   10 H2     2pz       -0.0000    0.2193    0.1072    0.2397   -0.2299    0.1540   -0.4575    0.5881   -0.5455    0.3284
   11 H3     1s         0.0000   -0.5334   -0.3790   -0.8939    0.7956    0.1758    0.1537   -0.1059   -0.0037    0.0486
   12 H3     2s         0.0000   -0.7757   -0.6184   -1.3364    1.1698    0.3355    0.0453   -0.0117   -0.0219    0.0232
   13 H3     2px       -0.0835   -0.0000   -0.0000   -0.0000    0.0000    0.0000   -0.0000    0.0000   -0.0000    0.0000
   14 H3     2py       -0.3538   -0.0000   -0.0000   -0.0000   -0.0000   -0.0000    0.0000    0.0000    0.0000    0.0000
   15 H3     2pz        0.0000    0.2044   -0.4540    0.1962    0.2603   -0.4229    0.1346    0.3298   -0.5992    0.4643
   16 H4     1s        -0.0000   -0.0396    0.7290    0.5350   -1.0713   -0.1070    0.0647   -0.1772    0.0813    0.0240
   17 H4     2s        -0.0000   -0.0757    1.0350    0.8759   -1.5794   -0.2926    0.0587   -0.0881    0.0341    0.0013
   18 H4     2px        0.1003    0.0000    0.0000    0.0000   -0.0000   -0.0000    0.0000   -0.0000   -0.0000    0.0000
   19 H4     2py        0.4250    0.0000    0.0000    0.0000   -0.0000   -0.0000   -0.0000    0.0000    0.0000    0.0000
   20 H4     2pz        0.0000   -0.4814    0.1216   -0.2801    0.0205   -0.2832    0.5303   -0.1421   -0.4699    0.5688
   21 H5     1s         0.0000    0.6226   -0.3855   -0.1470    1.0810    0.4897   -0.1852   -0.0614    0.1117    0.0093
   22 H5     2s         0.0000    0.9222   -0.5297   -0.2733    1.6708    0.6298   -0.1152   -0.0189    0.0328    0.0054
[...]
   41 H9     1s         0.0000   -0.5911   -0.0541    0.8174    0.3421    0.4900    0.2108    0.0648   -0.0227   -0.0374
   42 H9     2s         0.0000   -0.8861    0.0138    1.1851    0.5528    0.5863    0.2070    0.0888    0.0342    0.0110
   43 H9     2px       -0.0599    0.0000    0.0000    0.0000    0.0000    0.0000   -0.0000    0.0000    0.0000    0.0000
   44 H9     2py       -0.2538    0.0000   -0.0000   -0.0000    0.0000    0.0000    0.0000    0.0000   -0.0000   -0.0000
   45 H9     2pz       -0.0000    0.2193   -0.1072   -0.2397   -0.2299    0.1540    0.4575    0.5881    0.5455    0.3284
   46 H10    1s        -0.0000    0.2393    0.0666   -0.3222   -0.0848   -0.2609   -0.2088   -0.1830   -0.1407   -0.0775
   47 H10    2s        -0.0000    0.3892    0.1255   -0.4962   -0.1200   -0.3721   -0.2393   -0.1646   -0.1035   -0.0501
   48 H10    2px        0.0313   -0.0000   -0.0000   -0.0000   -0.0000   -0.0000    0.0000   -0.0000   -0.0000    0.0000
   49 H10    2py        0.1325   -0.0000    0.0000    0.0000   -0.0000    0.0000    0.0000   -0.0000   -0.0000    0.0000
   50 H10    2pz        0.0000   -0.3031   -0.2494    0.3948   -0.0282    0.4933    0.4608    0.3937    0.2893    0.1538
--
 
      Von Neumann Entropy (Root  1) =  3.96082
 

      Mulliken population analysis for root number:  1
      -----------------------------------------------
 
 
++    Molecular charges:
      ------------------
 
      Mulliken charges per centre and basis function type
      ---------------------------------------------------
 
                H1      H2      H3      H4      H5      H6      H7      H8      H9      H10   
      1s       0.9812  1.0028  1.0009  0.9999  1.0002  1.0002  0.9999  1.0009  1.0028  0.9812
      2s       0.0084  0.0028 -0.0047 -0.0030 -0.0036 -0.0036 -0.0030 -0.0047  0.0028  0.0084
      2px      0.0000  0.0000  0.0000  0.0000  0.0000  0.0000  0.0000  0.0000  0.0000  0.0000
      2pz      0.0015  0.0037  0.0033  0.0033  0.0033  0.0033  0.0033  0.0033  0.0037  0.0015
      2py      0.0000  0.0000  0.0000  0.0000  0.0000  0.0000  0.0000  0.0000  0.0000  0.0000
      Total    0.9910  1.0093  0.9995  1.0002  1.0000  1.0000  1.0002  0.9995  1.0093  0.9910
 
      N-E      0.0090 -0.0093  0.0005 -0.0002  0.0000  0.0000 -0.0002  0.0005 -0.0093  0.0090
 
      Total electronic charge=   10.000000
 
      Total            charge=   -0.000000
--
 
 

      Expectation values of various properties for root number:  1
      -----------------------------------------------------------
 
 
++    Molecular properties:
      ---------------------
 
      Charge (e):
                      =   -0.0000
      Dipole Moment (Debye):
      Origin of the operator (Ang)=    0.0000    0.0000    0.0000
                   X= -1.0023E-12               Y= -9.1909E-13               Z=  7.1446E-11           Total=  7.1459E-11
      Quadrupole Moment (Debye*Ang):
      Origin of the operator (Ang)=    0.0000    0.0000    9.1364
                  XX= -1.5391E+01              XY= -3.3754E-26              XZ=  4.4968E-13              YY= -1.5391E+01
                  YZ= -8.2429E-13              ZZ= -1.1768E+01
      In traceless form (Debye*Ang)
                  XX= -1.8114E+00              XY= -5.0631E-26              XZ=  6.7452E-13              YY= -1.8114E+00
                  YZ= -1.2364E-12              ZZ=  3.6229E+00
--
 

      LoProp population analysis for root number:  1
      -----------------------------------------------
 
 
++    LoProp analysis:
      ----------------
 
 
 
  Input file to MOLDEN was generated!
 
 
++    Static properties:
      ------------------
 
 
      LoProp Charges per center
 

                   H1       H2       H3       H4       H5       H6       H7       H8       H9       H10   
      Nuclear      1.0000   1.0000   1.0000   1.0000   1.0000   1.0000   1.0000   1.0000   1.0000   1.0000
      Electronic  -0.9999  -1.0002  -0.9998  -1.0002  -1.0000  -1.0000  -1.0002  -0.9998  -1.0002  -0.9999
 
      Total        0.0001  -0.0002   0.0002  -0.0002   0.0000   0.0000  -0.0002   0.0002  -0.0002   0.0001
--
 
 
      Natural Bond Order analysis for root number:  1
 
++    Natural Bond Order analysis
      ---------------------------
      Based on LoProp computed density
      -------------------------------------------------------------------------------------
      Atom A       Atom B       Bond Order
      -------------------------------------------------------------------------------------
      NBO located      0.996 non-bonded electrons on atom H1        
      NBO located      1.018 non-bonded electrons on atom H3        
      NBO located      1.017 non-bonded electrons on atom H4        
      NBO located      1.017 non-bonded electrons on atom H5        
      NBO located      1.017 non-bonded electrons on atom H6        
      NBO located      1.017 non-bonded electrons on atom H7        
      NBO located      1.018 non-bonded electrons on atom H8        
      NBO located      0.996 non-bonded electrons on atom H10       
      The remaining    1.903 electrons are to be considered as diffuse
--
 
--
 
 
  Input file to MOLDEN was generated!
 
      Average orbitals are written to the RASORB file
      Natural orbitals for root   1 are written to the RASORB.1 file
      Spin density orbitals for root   1 are written to the SPDORB.1 file
 
--- Stop Module: rasscf at Tue Nov 12 18:37:45 2024 /rc=_RC_ALL_IS_WELL_ ---
*** files: H10_2.03.LprOrb H10_2.03.rasscf.molden H10_2.03.LoProp.molden H10_2.03.RasOrb H10_2.03.RasOrb.1 H10_2.03.rasscf.h5 H10_2.03.SpdOrb.1 xmldump
    saved to directory /home/grierjones/DDCASPT2/hydrogen_comps/H10_chain/H10_2.03
--- Module rasscf spent 4 seconds ---

>>> COPY /tmp/H10_2.03/H10_2.03.rasscf.h5 /home/grierjones/DDCASPT2/hydrogen_comps/H10_chain/H10_2.03/

>>> COPY /tmp/H10_2.03/GMJ_Fock_MO.csv /home/grierjones/DDCASPT2/hydrogen_comps/H10_chain/H10_2.03/H10_2.03.GMJ_Fock_MO.csv

>>> COPY /tmp/H10_2.03/GMJ_PT2_Fock_MO.csv /home/grierjones/DDCASPT2/hydrogen_comps/H10_chain/H10_2.03/H10_2.03.GMJ_PT2_Fock_MO.csv

*** symbolic link created: INPORB -> H10_2.03.RasOrb
--- Start Module: motra at Tue Nov 12 18:37:45 2024 ---
 
()()()()()()()()()()()()()()()()()()()()()()()()()()()()()()()()()()()()()()()()()()()()()()()()()()

                                               &MOTRA

                                   only a single process is used
                       available to each process: 2.0 GB of memory, 1 thread?
()()()()()()()()()()()()()()()()()()()()()()()()()()()()()()()()()()()()()()()()()()()()()()()()()()
 
 
      *** WARNING: Default frozen orbitals is overwritten by user input.
      *** Default values:   0
 
      Header of the integral files:
      
       Integrals generated by seward 4.2.0  , Tue Nov 12 18:37:40 2024
 
 
      Header of MO coefficients source file:
      * RASSCF average (pseudo-natural) orbitals                                      
 
 
      Cartesian coordinates in Angstrom:
      -----------------------------------------------------
      No.  Label        X            Y            Z        
      -----------------------------------------------------
       1   H1         0.00000000   0.00000000   0.00000000
       2   H2         0.00000000   0.00000000   2.03030300
       3   H3         0.00000000   0.00000000   4.06060600
       4   H4         0.00000000   0.00000000   6.09090900
       5   H5         0.00000000   0.00000000   8.12121200
       6   H6         0.00000000   0.00000000  10.15151500
       7   H7         0.00000000   0.00000000  12.18181800
       8   H8         0.00000000   0.00000000  14.21212100
       9   H9         0.00000000   0.00000000  16.24242400
      10   H10        0.00000000   0.00000000  18.27272700
      -----------------------------------------------------
      Nuclear repulsion energy =    5.02765371
 
      Orbital specifications:
      -----------------------
 
      Symmetry species:              1
      Number of basis functions:    50
      Frozen orbitals:               0
      Deleted orbitals:              0
      Number of orbitals used:      50

       SYMMETRY  BASIS FUNCTIONS       ORBITALS      INTEGRALS   CPU(SEC)  I/O(SEC)
 
        1 1 1 1   50  50  50  50    50  50  50  50      813450       0.00      0.00

       TOTAL CPU TIME(SEC)    0.35TOTAL I/O TIME(SEC)    1.04
 
--- Stop Module: motra at Tue Nov 12 18:37:46 2024 /rc=_RC_ALL_IS_WELL_ ---
*** files: xmldump
    saved to directory /home/grierjones/DDCASPT2/hydrogen_comps/H10_chain/H10_2.03
--- Module motra spent 1 second ---

>>> COPY /tmp/H10_2.03/GMJ_one_int_indx.csv /home/grierjones/DDCASPT2/hydrogen_comps/H10_chain/H10_2.03/H10_2.03.GMJ_one_int_indx.csv

>>> COPY /tmp/H10_2.03/GMJ_one_int.csv /home/grierjones/DDCASPT2/hydrogen_comps/H10_chain/H10_2.03/H10_2.03.GMJ_one_int.csv

>>> COPY /tmp/H10_2.03/GMJ_two_int_indx.csv /home/grierjones/DDCASPT2/hydrogen_comps/H10_chain/H10_2.03/H10_2.03.GMJ_two_int_indx.csv

>>> COPY /tmp/H10_2.03/GMJ_two_int.csv /home/grierjones/DDCASPT2/hydrogen_comps/H10_chain/H10_2.03/H10_2.03.GMJ_two_int.csv

*** symbolic link created: INPORB -> H10_2.03.RasOrb
--- Start Module: caspt2 at Tue Nov 12 18:37:46 2024 ---
 
()()()()()()()()()()()()()()()()()()()()()()()()()()()()()()()()()()()()()()()()()()()()()()()()()()

                                              &CASPT2

                                   only a single process is used
                       available to each process: 2.0 GB of memory, 1 thread?
()()()()()()()()()()()()()()()()()()()()()()()()()()()()()()()()()()()()()()()()()()()()()()()()()()
 
 Cholesky algorithm in CASPT2 =    1
 
 ###############################################################################
 ###############################################################################
 ###                                                                         ###
 ###                                                                         ###
 ###    User changed nr of frozen orbitals.                                  ###
 ###                                                                         ###
 ###                                                                         ###
 ###############################################################################
 ###############################################################################
 
++    Wave function specifications:
      -----------------------------
 
      Number of closed shell electrons           0
      Number of electrons in active shells      10
      Max number of holes in RAS1 space          0
      Max number of electrons in RAS3 space      0
      Number of inactive orbitals                0
      Number of active orbitals                 10
      Number of secondary orbitals              40
      Spin quantum number                      0.0
      State symmetry                             1
      Number of CSFs                         19404
      Number of root(s) available                1
      Root passed to geometry opt.               1
      A file JOBMIX will be created.
      This is a CASSCF or RASSCF reference function
--
 
++    Orbital specifications:
      -----------------------
 
      Symmetry species                           1
                                                 a
      Frozen orbitals                            0
      Inactive orbitals                          0
      Active orbitals                           10
      Secondary orbitals                        40
      Deleted orbitals                           0
      Number of basis functions                 50
--
 
      Type of Fock operator: STANDARD
      Type of 0-order Hamiltonian: STANDARD WITH DEFAULT IPEA
        "IP-EA" denominator shift =      0.25
      The input orbitals and the CI vector will be transformed.
 
--------------------------------------------------------------------------------
 Estimated memory requirements:
  POLY3 :                  3551880
  RHS:                      835500
  SIGMA :                   430400
  PRPCTL:                        0
 Available workspace:    230354915
 
++ CASPT2 computation for group   1
 
********************************************************************************
 Multi-State initialization phase begins for group   1
--------------------------------------------------------------------------------
********************************************************************************
 Compute H0 matrices for state    1
--------------------------------------------------------------------------------
--------------------------------------------------------------------------------
 H0 matrices have been computed.
 
********************************************************************************
  CASPT2 EQUATION SOLUTION
--------------------------------------------------------------------------------
 
  Total nr of CASPT2 parameters:
   Before reduction:      120200
   After  reduction:      119800
 
 The contributions to the second order correlation energy in atomic units.
-----------------------------------------------------------------------------------------------------------------------------
  IT.      VJTU        VJTI        ATVX        AIVX        VJAI        BVAT        BJAT        BJAI        TOTAL       RNORM  
-----------------------------------------------------------------------------------------------------------------------------
   1     0.000000    0.000000   -0.004978    0.000000    0.000000   -0.010829    0.000000    0.000000   -0.015807    0.001490
   2     0.000000    0.000000   -0.005024    0.000000    0.000000   -0.010844    0.000000    0.000000   -0.015868    0.000238
   3     0.000000    0.000000   -0.005029    0.000000    0.000000   -0.010846    0.000000    0.000000   -0.015875    0.000061
   4     0.000000    0.000000   -0.005027    0.000000    0.000000   -0.010846    0.000000    0.000000   -0.015873    0.000009
   5     0.000000    0.000000   -0.005027    0.000000    0.000000   -0.010846    0.000000    0.000000   -0.015873    0.000002
-------------------------------------------------------------------------------------------------------------------
 
  FINAL CASPT2 RESULT:
 
  Correlation energy /Case, /Symm, and sums:
 VJTU      0.00000000  0.00000000
 VJTIP     0.00000000  0.00000000
 VJTIM     0.00000000  0.00000000
 ATVX     -0.00502679 -0.00502679
 AIVX      0.00000000  0.00000000
 VJAIP     0.00000000  0.00000000
 VJAIM     0.00000000  0.00000000
 BVATP    -0.01020709 -0.01020709
 BVATM    -0.00063869 -0.00063869
 BJATP     0.00000000  0.00000000
 BJATM     0.00000000  0.00000000
 BJAIP     0.00000000  0.00000000
 BJAIM     0.00000000  0.00000000
 Summed:  -0.01587257 -0.01587257
 
      Reference energy:          -5.0656520622
      E2 (Non-variational):      -0.0158725662
      E2 (Variational):          -0.0158725661
      Total energy:              -5.0815246282
      Residual norm:              0.0000002235
      Reference weight:           0.99026
 
      Contributions to the CASPT2 correlation energy
      Active & Virtual Only:         -0.0158725662
      One Inactive Excited:           0.0000000000
      Two Inactive Excited:           0.0000000000
 
 
++ Denominators, etc.
----------------------------------------------------------------------------------------------------
 Report on small energy denominators, large coefficients, and large energy contributions.
CASE  SYMM ACTIVE-MIX  NON-ACTIVE INDICES          DENOMINATOR     RHS VALUE       COEFFICIENT     CONTRIBUTION
ATVX     1  Mu1.0001  Se1.011                       0.21873518     -0.00001287      0.00018965     -0.00000000
ATVX     1  Mu1.0002  Se1.011                       0.25937442     -0.00000000     -0.00000000      0.00000000
ATVX     1  Mu1.0003  Se1.011                       0.29915009     -0.00007520      0.00072389     -0.00000005
ATVX     1  Mu1.0001  Se1.012                       0.23371563     -0.00000000      0.00000000     -0.00000000
ATVX     1  Mu1.0002  Se1.012                       0.27435487     -0.00005055      0.00074343     -0.00000004
ATVX     1  Mu1.0001  Se1.013                       0.26187896     -0.00009413     -0.00002562      0.00000000
--
 
   (Skipping property calculation,
    use PROP keyword to activate)
--
 
  Total CASPT2 energies:
::    CASPT2 Root  1     Total energy:     -5.08152463
 
  A NEW JOBIPH FILE NAMED 'JOBMIX' IS PREPARED.
********************************************************************************
--- Stop Module: caspt2 at Tue Nov 12 18:37:48 2024 /rc=_RC_ALL_IS_WELL_ ---
*** files: xmldump
    saved to directory /home/grierjones/DDCASPT2/hydrogen_comps/H10_chain/H10_2.03
--- Module caspt2 spent 2 seconds ---

>>> EXPORT i = B

>>> EXPORT j = P

>>> IF (-FILE GMJ_e2_${i}_${j}.csv)
(Skipped)

>>> END FOREACH

>>> EXPORT j = M

>>> IF (-FILE GMJ_e2_${i}_${j}.csv)
(Skipped)

>>> END FOREACH

>>> END FOREACH

>>> EXPORT i = E

>>> EXPORT j = P

>>> IF (-FILE GMJ_e2_${i}_${j}.csv)
(Skipped)

>>> END FOREACH

>>> EXPORT j = M

>>> IF (-FILE GMJ_e2_${i}_${j}.csv)
(Skipped)

>>> END FOREACH

>>> END FOREACH

>>> EXPORT i = F

>>> EXPORT j = P

>>> IF (-FILE GMJ_e2_${i}_${j}.csv)

>>> COPY /tmp/H10_2.03/GMJ_RHS_F_P.csv /home/grierjones/DDCASPT2/hydrogen_comps/H10_chain/H10_2.03/GMJ_RHS_F_P.csv

>>> COPY /tmp/H10_2.03/GMJ_IVECW_F_P.csv /home/grierjones/DDCASPT2/hydrogen_comps/H10_chain/H10_2.03/GMJ_IVECW_F_P.csv

>>> COPY /tmp/H10_2.03/GMJ_IVECX_F_P.csv /home/grierjones/DDCASPT2/hydrogen_comps/H10_chain/H10_2.03/GMJ_IVECX_F_P.csv

>>> COPY /tmp/H10_2.03/GMJ_IVECC2_F_P.csv /home/grierjones/DDCASPT2/hydrogen_comps/H10_chain/H10_2.03/GMJ_IVECC2_F_P.csv

>>> COPY /tmp/H10_2.03/GMJ_e2_F_P.csv /home/grierjones/DDCASPT2/hydrogen_comps/H10_chain/H10_2.03/GMJ_e2_F_P.csv

>>> END FOREACH

>>> EXPORT j = M

>>> IF (-FILE GMJ_e2_${i}_${j}.csv)

>>> COPY /tmp/H10_2.03/GMJ_RHS_F_M.csv /home/grierjones/DDCASPT2/hydrogen_comps/H10_chain/H10_2.03/GMJ_RHS_F_M.csv

>>> COPY /tmp/H10_2.03/GMJ_IVECW_F_M.csv /home/grierjones/DDCASPT2/hydrogen_comps/H10_chain/H10_2.03/GMJ_IVECW_F_M.csv

>>> COPY /tmp/H10_2.03/GMJ_IVECX_F_M.csv /home/grierjones/DDCASPT2/hydrogen_comps/H10_chain/H10_2.03/GMJ_IVECX_F_M.csv

>>> COPY /tmp/H10_2.03/GMJ_IVECC2_F_M.csv /home/grierjones/DDCASPT2/hydrogen_comps/H10_chain/H10_2.03/GMJ_IVECC2_F_M.csv

>>> COPY /tmp/H10_2.03/GMJ_e2_F_M.csv /home/grierjones/DDCASPT2/hydrogen_comps/H10_chain/H10_2.03/GMJ_e2_F_M.csv

>>> END FOREACH

>>> END FOREACH

>>> EXPORT i = G

>>> EXPORT j = P

>>> IF (-FILE GMJ_e2_${i}_${j}.csv)
(Skipped)

>>> END FOREACH

>>> EXPORT j = M

>>> IF (-FILE GMJ_e2_${i}_${j}.csv)
(Skipped)

>>> END FOREACH

>>> END FOREACH

>>> EXPORT i = H

>>> EXPORT j = P

>>> IF (-FILE GMJ_e2_${i}_${j}.csv)
(Skipped)

>>> END FOREACH

>>> EXPORT j = M

>>> IF (-FILE GMJ_e2_${i}_${j}.csv)
(Skipped)

>>> END FOREACH

>>> END FOREACH

>>> EXPORT i = A

>>> IF (-FILE GMJ_e2_$i.csv)
(Skipped)

>>> END FOREACH

>>> EXPORT i = C

>>> IF (-FILE GMJ_e2_$i.csv)

>>> COPY /tmp/H10_2.03/GMJ_RHS_C.csv /home/grierjones/DDCASPT2/hydrogen_comps/H10_chain/H10_2.03/GMJ_RHS_C.csv

>>> COPY /tmp/H10_2.03/GMJ_IVECW_C.csv /home/grierjones/DDCASPT2/hydrogen_comps/H10_chain/H10_2.03/GMJ_IVECW_C.csv

>>> COPY /tmp/H10_2.03/GMJ_IVECX_C.csv /home/grierjones/DDCASPT2/hydrogen_comps/H10_chain/H10_2.03/GMJ_IVECX_C.csv

>>> COPY /tmp/H10_2.03/GMJ_IVECC2_C.csv /home/grierjones/DDCASPT2/hydrogen_comps/H10_chain/H10_2.03/GMJ_IVECC2_C.csv

>>> COPY /tmp/H10_2.03/GMJ_e2_C.csv /home/grierjones/DDCASPT2/hydrogen_comps/H10_chain/H10_2.03/GMJ_e2_C.csv

>>> END FOREACH

>>> EXPORT i = D

>>> IF (-FILE GMJ_e2_$i.csv)
(Skipped)

>>> END FOREACH

.########################.
.# Non-zero return code #.
.########################.

    Timing: Wall=8.83 User=7.59 System=1.24
****************************************
*** WorkDir at /tmp/H10_2.03 cleaned ***
****************************************
