[Molden Format]
[N_Atoms]
                     2
[Atoms] (AU)
F1          1      9           0.00000000      0.00000000      0.00000000
O2          2      8           0.00000000      0.00000000      4.15739747
[Charge] (Mulliken)
 -5.637366366014973E-003
  5.637366365968788E-003
[GTO] (AU)
   1
   s  14
  1.031094600E+05  1.713099991E-04
  1.528100700E+04  7.123999962E-04
  3.441539200E+03  2.990479984E-03
  9.670948300E+02  1.164036994E-02
  3.140353400E+02  3.968642979E-02
  1.134423000E+02  1.128546094E-01
  4.464472700E+01  2.473650687E-01
  1.894287400E+01  3.672702681E-01
  8.532743000E+00  2.896286985E-01
  3.919401000E+00  7.786681959E-02
  1.568157000E+00  4.562139976E-03
  6.232900000E-01  2.468879987E-03
  2.408610000E-01  1.106309994E-03
  8.430100000E-02  1.739699991E-04
   s  14
  1.031094600E+05 -4.044999995E-05
  1.528100700E+04 -1.682299998E-04
  3.441539200E+03 -7.084299991E-04
  9.670948300E+02 -2.767999996E-03
  3.140353400E+02 -9.611379987E-03
  1.134423000E+02 -2.833957996E-02
  4.464472700E+01 -6.839343991E-02
  1.894287400E+01 -1.237379298E-01
  8.532743000E+00 -1.512859698E-01
  3.919401000E+00 -9.099909988E-03
  1.568157000E+00  3.716257695E-01
  6.232900000E-01  5.500214393E-01
  2.408610000E-01  2.092318697E-01
  8.430100000E-02  8.074639989E-03
   p   9
  2.453302900E+02  1.024860004E-03
  5.691900500E+01  8.344290032E-03
  1.760456800E+01  4.078927016E-02
  6.274995000E+00  1.351370605E-01
  2.447030000E+00  2.798830811E-01
  9.950600000E-01  3.597966414E-01
  4.039730000E-01  3.055347412E-01
  1.548100000E-01  1.354703905E-01
  5.418400000E-02  2.804449011E-02
 
   2
   s  14
  1.053749500E+05  1.238600013E-04
  1.567924000E+04  5.120100053E-04
  3.534544700E+03  2.152910022E-03
  9.873651600E+02  8.528440089E-03
  3.159787500E+02  3.018049031E-02
  1.116542800E+02  9.099702095E-02
  4.269945100E+01  2.177936423E-01
  1.739559600E+01  3.686245738E-01
  7.438309000E+00  3.366707335E-01
  3.222862000E+00  9.657630101E-02
  1.253877000E+00  2.144520022E-03
  4.951550000E-01  1.194350012E-03
  1.916650000E-01  5.390200056E-04
  6.708300000E-02  2.103400022E-04
   s  14
  1.053749500E+05 -2.815000008E-05
  1.567924000E+04 -1.163000003E-04
  3.534544700E+03 -4.909200013E-04
  9.873651600E+02 -1.946160005E-03
  3.159787500E+02 -7.005300019E-03
  1.116542800E+02 -2.167814006E-02
  4.269945100E+01 -5.641213015E-02
  1.739559600E+01 -1.127053003E-01
  7.438309000E+00 -1.589119704E-01
  3.222862000E+00 -3.355083009E-02
  1.253877000E+00  3.531902810E-01
  4.951550000E-01  5.534199315E-01
  1.916650000E-01  2.301839106E-01
  6.708300000E-02  1.127267003E-02
   p   9
  2.000000000E+02  9.173000030E-04
  4.653336700E+01  7.377140024E-03
  1.462180900E+01  3.483515011E-02
  5.313064000E+00  1.144397004E-01
  2.102525000E+00  2.554966408E-01
  8.502230000E-01  3.722557412E-01
  3.375970000E-01  3.323314911E-01
  1.288920000E-01  1.400847905E-01
  4.511200000E-02  2.395784008E-02
 
[MO]
Sym=     1a  
Ene=   -26.4220
Spin= Alpha
Occup=    1.00000
   1         0.99999147
   2        -0.00418858
   3        -0.00000000
   4         0.00000000
   5         0.00002702
   6        -0.00000329
   7        -0.00003890
   8         0.00000000
   9         0.00000000
  10         0.00003280
Sym=     1a  
Ene=   -26.4630
Spin= Beta
Occup=    1.00000
   1         0.99999755
   2        -0.00247873
   3        -0.00000000
   4        -0.00000000
   5         0.00003439
   6        -0.00000471
   7        -0.00007174
   8         0.00000000
   9         0.00000000
  10         0.00008862
Sym=     2a  
Ene=   -20.7690
Spin= Alpha
Occup=    1.00000
   1        -0.00000917
   2        -0.00011924
   3        -0.00000000
   4        -0.00000000
   5        -0.00014449
   6         0.99999966
   7         0.00158591
   8         0.00000000
   9         0.00000000
  10        -0.00004389
Sym=     2a  
Ene=   -20.7000
Spin= Beta
Occup=    1.00000
   1        -0.00000390
   2        -0.00003233
   3        -0.00000000
   4        -0.00000000
   5        -0.00000818
   6         0.99999778
   7        -0.00213866
   8         0.00000000
   9         0.00000000
  10        -0.00002903
Sym=     3a  
Ene=    -1.5206
Spin= Alpha
Occup=    1.00000
   1         0.00378717
   2         0.98031023
   3        -0.00000000
   4         0.00000000
   5         0.00402478
   6        -0.00106170
   7         0.15986108
   8         0.00000000
   9         0.00000000
  10        -0.01984027
Sym=     3a  
Ene=    -1.6912
Spin= Beta
Occup=    1.00000
   1         0.00244510
   2         0.99910896
   3        -0.00000000
   4        -0.00000000
   5         0.00570523
   6        -0.00077131
   7         0.01484491
   8         0.00000000
   9        -0.00000000
  10        -0.00356433
Sym=     4a  
Ene=    -1.4284
Spin= Alpha
Occup=    1.00000
   1        -0.00208991
   2        -0.19117005
   3        -0.00000000
   4         0.00000000
   5         0.00618244
   6        -0.00143141
   7         0.98706496
   8         0.00000000
   9        -0.00000000
  10        -0.00157602
Sym=     4a  
Ene=    -1.1246
Spin= Beta
Occup=    1.00000
   1        -0.00146427
   2        -0.04729989
   3        -0.00000000
   4        -0.00000000
   5         0.08389337
   6         0.00169892
   7         0.99009952
   8         0.00000000
   9         0.00000000
  10        -0.00691299
Sym=     5a  
Ene=    -0.7237
Spin= Alpha
Occup=    1.00000
   1        -0.00000000
   2        -0.00000000
   3         0.09854091
   4         0.52044980
   5         0.00000000
   6        -0.00000000
   7        -0.00000000
   8         0.15422938
   9         0.81457180
  10        -0.00000000
Sym=     5a  
Ene=    -0.8398
Spin= Beta
Occup=    1.00000
   1         0.00004683
   2        -0.00163558
   3         0.00000000
   4        -0.00000000
   5         0.99678742
   6        -0.00577567
   7        -0.16407954
   8        -0.00000000
   9        -0.00000000
  10        -0.02468065
Sym=     6a  
Ene=    -0.7178
Spin= Alpha
Occup=    1.00000
   1         0.00619892
   2         0.09834482
   3         0.00000000
   4        -0.00000000
   5        -0.05601561
   6         0.00024239
   7         0.00776000
   8         0.00000000
   9         0.00000000
  10         0.99569918
Sym=     6a  
Ene=    -0.7517
Spin= Beta
Occup=    1.00000
   1         0.00000000
   2         0.00000000
   3         0.98030458
   4        -0.18560888
   5        -0.00000000
   6         0.00000000
   7         0.00000000
   8         0.03952203
   9        -0.00748302
  10         0.00000000
Sym=     7a  
Ene=    -0.7089
Spin= Alpha
Occup=    1.00000
   1        -0.00000000
   2        -0.00000000
   3         0.96860958
   4        -0.18339458
   5        -0.00000000
   6         0.00000000
   7         0.00000000
   8         0.13323510
   9        -0.02522646
  10        -0.00000000
Sym=     7a  
Ene=    -0.7513
Spin= Beta
Occup=    1.00000
   1         0.00000000
   2         0.00000000
   3         0.18599382
   4         0.98233765
   5         0.00000000
   6        -0.00000000
   7        -0.00000000
   8         0.00099379
   9         0.00524878
  10         0.00000000
Sym=     8a  
Ene=    -0.7012
Spin= Alpha
Occup=    1.00000
   1        -0.00000000
   2        -0.00000000
   3        -0.15793735
   4        -0.83415569
   5        -0.00000000
   6         0.00000000
   7         0.00000000
   8         0.10424883
   9         0.55059650
  10        -0.00000000
Sym=     8a  
Ene=    -0.5587
Spin= Beta
Occup=    1.00000
   1         0.00000000
   2         0.00000000
   3        -0.07540986
   4         0.01427795
   5         0.00000000
   6        -0.00000000
   7        -0.00000000
   8         0.98240609
   9        -0.18600678
  10         0.00000000
Sym=     9a  
Ene=    -0.6360
Spin= Alpha
Occup=    1.00000
   1         0.00000000
   2         0.00000000
   3        -0.16875778
   4         0.03195226
   5         0.00000000
   6        -0.00000000
   7        -0.00000000
   8         0.97413147
   9        -0.18444008
  10         0.00000000
Sym=     9a  
Ene=     0.1206
Spin= Beta
Occup=    0.00000
   1         0.00000000
   2         0.00000000
   3        -0.00779846
   4        -0.04118805
   5         0.00000000
   6        -0.00000000
   7        -0.00000000
   8         0.18615459
   9         0.98318674
  10         0.00000000
Sym=    10a  
Ene=     0.0744
Spin= Alpha
Occup=    0.00000
   1         0.00107131
   2         0.01342666
   3         0.00000000
   4        -0.00000000
   5         1.00689172
   6        -0.00551417
   7        -0.08712640
   8        -0.00000000
   9         0.00000000
  10         0.15854194
Sym=    10a  
Ene=     0.1270
Spin= Beta
Occup=    0.00000
   1         0.00616422
   2         0.08341985
   3         0.00000000
   4         0.00000000
   5         0.12793482
   6        -0.00075188
   7        -0.00790208
   8        -0.00000000
   9        -0.00000000
  10         1.00810659
