[Molden Format]
[N_Atoms]
                     2
[Atoms] (AU)
B1          1      5           0.00000000      0.00000000      0.00000000
B2          2      5           0.00000000      0.00000000      4.34637009
[Charge] (Mulliken)
  4.444557135483862E-003
 -4.444557135509619E-003
[GTO] (AU)
   1
   s  14
  3.336021700E+04  1.039699991E-04
  4.972095200E+03  5.254399956E-04
  1.125641700E+03  2.509059979E-03
  3.164913600E+02  1.031887991E-02
  1.020072600E+02  3.636632969E-02
  3.629587300E+01  1.064607991E-01
  1.397141000E+01  2.403999880E-01
  5.741156000E+00  3.748581168E-01
  2.494268000E+00  3.100066974E-01
  1.114202000E+00  7.922455933E-02
  4.215490000E-01 -4.947589958E-03
  1.696330000E-01 -7.737119935E-03
  6.853500000E-02 -1.501079987E-03
  2.398700000E-02 -1.333299989E-04
   s  14
  3.336021700E+04 -2.030000008E-05
  4.972095200E+03 -1.025700004E-04
  1.125641700E+03 -4.911300020E-04
  3.164913600E+02 -2.026570008E-03
  1.020072600E+02 -7.261010030E-03
  3.629587300E+01 -2.197722009E-02
  1.397141000E+01 -5.408428022E-02
  5.741156000E+00 -1.022402604E-01
  2.494268000E+00 -1.423595206E-01
  1.114202000E+00 -4.658690019E-02
  4.215490000E-01  3.799402916E-01
  1.696330000E-01  5.890463624E-01
  6.853500000E-02  1.749075107E-01
  2.398700000E-02 -1.142030005E-03
   p   9
  5.500000000E+01  1.229800005E-03
  1.336610100E+01  8.827380035E-03
  4.135394000E+00  3.843340015E-02
  1.481256000E+00  1.150031805E-01
  6.021360000E-01  2.733674011E-01
  2.556360000E-01  4.061972116E-01
  1.111510000E-01  3.014967912E-01
  4.764800000E-02  7.684809030E-02
  1.667700000E-02 -8.170000032E-06
 
   2
   s  14
  3.336021700E+04  1.039699991E-04
  4.972095200E+03  5.254399956E-04
  1.125641700E+03  2.509059979E-03
  3.164913600E+02  1.031887991E-02
  1.020072600E+02  3.636632969E-02
  3.629587300E+01  1.064607991E-01
  1.397141000E+01  2.403999880E-01
  5.741156000E+00  3.748581168E-01
  2.494268000E+00  3.100066974E-01
  1.114202000E+00  7.922455933E-02
  4.215490000E-01 -4.947589958E-03
  1.696330000E-01 -7.737119935E-03
  6.853500000E-02 -1.501079987E-03
  2.398700000E-02 -1.333299989E-04
   s  14
  3.336021700E+04 -2.030000008E-05
  4.972095200E+03 -1.025700004E-04
  1.125641700E+03 -4.911300020E-04
  3.164913600E+02 -2.026570008E-03
  1.020072600E+02 -7.261010030E-03
  3.629587300E+01 -2.197722009E-02
  1.397141000E+01 -5.408428022E-02
  5.741156000E+00 -1.022402604E-01
  2.494268000E+00 -1.423595206E-01
  1.114202000E+00 -4.658690019E-02
  4.215490000E-01  3.799402916E-01
  1.696330000E-01  5.890463624E-01
  6.853500000E-02  1.749075107E-01
  2.398700000E-02 -1.142030005E-03
   p   9
  5.500000000E+01  1.229800005E-03
  1.336610100E+01  8.827380035E-03
  4.135394000E+00  3.843340015E-02
  1.481256000E+00  1.150031805E-01
  6.021360000E-01  2.733674011E-01
  2.556360000E-01  4.061972116E-01
  1.111510000E-01  3.014967912E-01
  4.764800000E-02  7.684809030E-02
  1.667700000E-02 -8.170000032E-06
 
[MO]
Sym=     1a  
Ene=    -7.6701
Spin= Alpha
Occup=    2.00000
   1         0.99998451
   2         0.00355917
   3         0.00000000
   4         0.00000000
   5         0.00076866
   6         0.00762698
   7         0.00191238
   8         0.00000000
   9         0.00000000
  10         0.00144107
Sym=     2a  
Ene=    -7.6651
Spin= Alpha
Occup=    2.00000
   1        -0.00761452
   2        -0.00033485
   3        -0.00000000
   4         0.00000000
   5        -0.00025362
   6         0.99988235
   7         0.01423553
   8        -0.00000000
   9        -0.00000000
  10        -0.00035348
Sym=     3a  
Ene=    -0.5098
Spin= Alpha
Occup=    2.00000
   1        -0.01385549
   2         0.00853317
   3         0.00000000
   4         0.00000000
   5         0.11861595
   6        -0.01769693
   7         0.95645889
   8         0.00000000
   9         0.00000000
  10         0.00179930
Sym=     4a  
Ene=    -0.2131
Spin= Alpha
Occup=    2.00000
   1         0.00000000
   2         0.00000000
   3        -0.08169000
   4         0.64407400
   5        -0.00000000
   6         0.00000000
   7         0.00000000
   8        -0.08387530
   9         0.66130371
  10         0.00000000
Sym=     5a  
Ene=     0.0903
Spin= Alpha
Occup=    0.06845
   1        -0.00000000
   2        -0.00000000
   3         0.99472937
   4         0.12616475
   5        -0.00000000
   6         0.00000000
   7         0.00000000
   8        -0.01834167
   9        -0.00232633
  10         0.00000000
Sym=     6a  
Ene=    -0.0001
Spin= Alpha
Occup=    1.93155
   1         0.00380248
   2        -0.98269138
   3         0.00000000
   4         0.00000000
   5         0.03309551
   6         0.01025520
   7         0.19762065
   8         0.00000000
   9         0.00000000
  10         0.10714892
Sym=     7a  
Ene=     0.0337
Spin= Alpha
Occup=    0.00000
   1         0.01565582
   2         0.21535372
   3        -0.00000000
   4        -0.00000000
   5        -0.64397145
   6         0.01579206
   7         0.23708919
   8        -0.00000000
   9        -0.00000000
  10         0.63925550
Sym=     8a  
Ene=     0.0828
Spin= Alpha
Occup=    0.00000
   1         0.00000000
   2         0.00000000
   3         0.09771548
   4        -0.77042484
   5        -0.00000000
   6         0.00000000
   7         0.00000000
   8        -0.09584626
   9         0.75568721
  10         0.00000000
Sym=     9a  
Ene=     0.1156
Spin= Alpha
Occup=    0.00000
   1         0.00000000
   2         0.00000000
   3        -0.13747449
   4        -0.01743634
   5        -0.00000000
   6         0.00000000
   7         0.00000000
   8         1.00401661
   9         0.12734268
  10         0.00000000
Sym=    10a  
Ene=     0.3005
Spin= Alpha
Occup=    0.00000
   1        -0.03093348
   2        -0.42060872
   3        -0.00000000
   4        -0.00000000
   5        -0.89690916
   6         0.03073782
   7         0.42281406
   8         0.00000000
   9         0.00000000
  10        -0.90231761
