[Molden Format]
[N_Atoms]
                     2
[Atoms] (AU)
B1          1      5           0.00000000      0.00000000      0.00000000
B2          2      5           0.00000000      0.00000000      4.34637009
[Charge] (Mulliken)
  0.999999999999682     
   1.00000000000030     
[GTO] (AU)
   1
   s  14
  3.336021700E+04  1.039699991E-04
  4.972095200E+03  5.254399956E-04
  1.125641700E+03  2.509059979E-03
  3.164913600E+02  1.031887991E-02
  1.020072600E+02  3.636632969E-02
  3.629587300E+01  1.064607991E-01
  1.397141000E+01  2.403999880E-01
  5.741156000E+00  3.748581168E-01
  2.494268000E+00  3.100066974E-01
  1.114202000E+00  7.922455933E-02
  4.215490000E-01 -4.947589958E-03
  1.696330000E-01 -7.737119935E-03
  6.853500000E-02 -1.501079987E-03
  2.398700000E-02 -1.333299989E-04
   s  14
  3.336021700E+04 -2.030000008E-05
  4.972095200E+03 -1.025700004E-04
  1.125641700E+03 -4.911300020E-04
  3.164913600E+02 -2.026570008E-03
  1.020072600E+02 -7.261010030E-03
  3.629587300E+01 -2.197722009E-02
  1.397141000E+01 -5.408428022E-02
  5.741156000E+00 -1.022402604E-01
  2.494268000E+00 -1.423595206E-01
  1.114202000E+00 -4.658690019E-02
  4.215490000E-01  3.799402916E-01
  1.696330000E-01  5.890463624E-01
  6.853500000E-02  1.749075107E-01
  2.398700000E-02 -1.142030005E-03
   p   9
  5.500000000E+01  1.229800005E-03
  1.336610100E+01  8.827380035E-03
  4.135394000E+00  3.843340015E-02
  1.481256000E+00  1.150031805E-01
  6.021360000E-01  2.733674011E-01
  2.556360000E-01  4.061972116E-01
  1.111510000E-01  3.014967912E-01
  4.764800000E-02  7.684809030E-02
  1.667700000E-02 -8.170000032E-06
 
   2
   s  14
  3.336021700E+04  1.039699991E-04
  4.972095200E+03  5.254399956E-04
  1.125641700E+03  2.509059979E-03
  3.164913600E+02  1.031887991E-02
  1.020072600E+02  3.636632969E-02
  3.629587300E+01  1.064607991E-01
  1.397141000E+01  2.403999880E-01
  5.741156000E+00  3.748581168E-01
  2.494268000E+00  3.100066974E-01
  1.114202000E+00  7.922455933E-02
  4.215490000E-01 -4.947589958E-03
  1.696330000E-01 -7.737119935E-03
  6.853500000E-02 -1.501079987E-03
  2.398700000E-02 -1.333299989E-04
   s  14
  3.336021700E+04 -2.030000008E-05
  4.972095200E+03 -1.025700004E-04
  1.125641700E+03 -4.911300020E-04
  3.164913600E+02 -2.026570008E-03
  1.020072600E+02 -7.261010030E-03
  3.629587300E+01 -2.197722009E-02
  1.397141000E+01 -5.408428022E-02
  5.741156000E+00 -1.022402604E-01
  2.494268000E+00 -1.423595206E-01
  1.114202000E+00 -4.658690019E-02
  4.215490000E-01  3.799402916E-01
  1.696330000E-01  5.890463624E-01
  6.853500000E-02  1.749075107E-01
  2.398700000E-02 -1.142030005E-03
   p   9
  5.500000000E+01  1.229800005E-03
  1.336610100E+01  8.827380035E-03
  4.135394000E+00  3.843340015E-02
  1.481256000E+00  1.150031805E-01
  6.021360000E-01  2.733674011E-01
  2.556360000E-01  4.061972116E-01
  1.111510000E-01  3.014967912E-01
  4.764800000E-02  7.684809030E-02
  1.667700000E-02 -8.170000032E-06
 
[MO]
Sym=     1a  
Ene=    -8.5276
Spin= Alpha
Occup=    2.00000
   1         0.70703842
   2         0.00954799
   3         0.00000000
   4        -0.00000000
   5        -0.00051247
   6         0.70703846
   7         0.00954799
   8        -0.00000000
   9        -0.00000000
  10         0.00051247
Sym=     2a  
Ene=    -8.5275
Spin= Alpha
Occup=    2.00000
   1        -0.70703019
   2        -0.00907007
   3         0.00000000
   4        -0.00000000
   5         0.00094813
   6         0.70703015
   7         0.00907007
   8        -0.00000000
   9         0.00000000
  10         0.00094813
Sym=     3a  
Ene=    -1.1322
Spin= Alpha
Occup=    2.00000
   1        -0.02187343
   2         0.57352656
   3         0.00000000
   4         0.00000000
   5         0.17855671
   6        -0.02187343
   7         0.57352656
   8        -0.00000000
   9         0.00000000
  10        -0.17855671
Sym=     4a  
Ene=    -0.6713
Spin= Alpha
Occup=    1.00000
   1         0.00000000
   2        -0.00000000
   3        -0.08278792
   4         0.65273045
   5         0.00000000
   6        -0.00000000
   7         0.00000000
   8        -0.08278792
   9         0.65273045
  10         0.00000000
Sym=     5a  
Ene=    -0.0000
Spin= Alpha
Occup=    1.00000
   1        -0.00000000
   2         0.00000000
   3         0.65273045
   4         0.08278792
   5        -0.00000000
   6         0.00000000
   7        -0.00000000
   8         0.65273045
   9         0.08278792
  10        -0.00000000
Sym=     6a  
Ene=    -0.7414
Spin= Alpha
Occup=    0.00000
   1         0.00275165
   2        -0.75246572
   3         0.00000000
   4        -0.00000000
   5         0.10185294
   6        -0.00275165
   7         0.75246572
   8         0.00000000
   9        -0.00000000
  10         0.10185294
Sym=     7a  
Ene=    -0.5622
Spin= Alpha
Occup=    0.00000
   1         0.01152528
   2         0.33029638
   3        -0.00000000
   4         0.00000000
   5        -0.62014113
   6         0.01152528
   7         0.33029638
   8         0.00000000
   9        -0.00000000
  10         0.62014113
Sym=     8a  
Ene=    -0.4902
Spin= Alpha
Occup=    0.00000
   1         0.00000000
   2         0.00000000
   3         0.76201990
   4         0.10498627
   5        -0.00000000
   6        -0.00000000
   7         0.00000000
   8        -0.76201990
   9        -0.10498627
  10         0.00000000
Sym=     9a  
Ene=    -0.4902
Spin= Alpha
Occup=    0.00000
   1         0.00000000
   2         0.00000000
   3         0.10498627
   4        -0.76201990
   5        -0.00000000
   6         0.00000000
   7         0.00000000
   8        -0.10498627
   9         0.76201990
  10         0.00000000
Sym=    10a  
Ene=    -0.3432
Spin= Alpha
Occup=    0.00000
   1        -0.03196194
   2        -0.42970961
   3        -0.00000000
   4         0.00000000
   5        -0.89859795
   6         0.03196194
   7         0.42970961
   8        -0.00000000
   9         0.00000000
  10        -0.89859795
