   This run of MOLCAS is using the pymolcas driver

                             OPE
                             OPE          NMOL  CASOP  ENMOLC A   SO
                 OPE        NMOLC        AS  OP EN  MO LC     AS  OP
                OPENM       OL CA        SO  PE NM  OL CA     SOP EN
                OP EN      MO   LC       AS  OP ENMOL  CASO   PENMOL
                OP  EN     MO   LC       AS  OP EN     MO     LC ASO
               OP   E  NMOL  C  AS       OP  EN MO     LC     AS  OP
               OP  E   NMO   LC AS        OPEN  MO     LCASOP EN   M
               O  PEN   MO  LCA  SO
            OPE   NMO   L   CAS    OP
        OPENMOL  CASOP     ENMOL   CASOPE
     OPENMOLCA   SOPENMOLCASOPEN   MOLCASOPE
    OPENMOLCAS   OP           EN   MOL    CAS
    OPENMOLCAS       OP  ENM        O     LCA
    OPENMOLCAS    OPEN  MOLCASO     P  E  NMO
    OPENMOLCAS     OP               E  N  MOL
    OPENMOLCA   SO           PENM   O  L  CAS    OPEN    MO    LCAS
    OPENMOLCA   SOP           ENM   O  L  CAS   OP  EN  MOLC  AS   O
    OPENMOLCA   SOPE           NM      O  LCA   S      OP  EN MO
    OPENMOLC                AS         O  PEN   M      OL  CA  SOPE
    OPENMO        LCASOPE  NMOL        C  ASO   P      ENMOLC     AS
    OPE     NMO      LCA  SO     P     E   NM   OL  CA SO  PE N   MO
          OPENMOLCA            SOPE   NMO        LCAS  O    P  ENMO
     OPENMOLCASOPENMOLCASOPENMOLCASOPENMOLCA
        OPENMOLCASOPENMOLCASOPENMOLCASOPE
            OPENMOLCASOPENMOLCASOPENM
               OPENMOLCASOPENMOLCA        version: f37762c57
                   OPENMOLCASO
                       OPE                tag:

 OpenMolcas is free software; you can redistribute it and/or modify it
 under the terms of the GNU Lesser General Public License version 2.1.
 OpenMolcas is distributed in the hope that it will be useful, but it
 is provided "as is" and without any express or implied warranties.
 For more details see the full text of the license in the file
 LICENSE or in <http://www.gnu.org/licenses/>.

                 Copyright (C) The OpenMolcas Authors
           For the author list and the recommended citation,
                   consult the file CONTRIBUTORS.md

           *************************************************
           * pymolcas version py2.28                       *
           *   build c4a6d18ded8cb6cad61d2372a9abd97c      *
           *   (after the EMIL interpreter by V. Veryazov) *
           *************************************************

configuration info
------------------
C Compiler ID: Intel
C flags: -std=gnu99 -gcc-sys
Fortran Compiler ID: IntelLLVM
Fortran flags: -standard-semantics -fltconsistency -fpp -i8 -heap-arrays
Definitions: _MOLCAS_;_I8_;_LINUX_
Parallel: OFF (GA=OFF)


   -------------------------------------------------------------------------------------------
  |
  |              Project: ozone_130.25
  |       Submitted from: /home/grierjones/DDCASPT2/ozone/multistate/ANO-RCC-VTZP/ozone_130.25
  |         Scratch area: /tmp/ozone_130.25
  |      Save outputs to: /home/grierjones/DDCASPT2/ozone/multistate/ANO-RCC-VTZP/ozone_130.25
  |               Molcas: /home/grierjones/Test/build
  |
  | Scratch area is empty
  |
  |       MOLCAS_DRIVER = /usr/local/pymolcas
  | MOLCAS_KEEP_WORKDIR = NO
  |  MOLCAS_NEW_WORKDIR = YES
  |       MOLCAS_NPROCS = 1
  |        MOLCAS_PRINT = NORMAL
  |       MOLCAS_SOURCE = /home/grierjones/Test
  |    MOLCAS_STRUCTURE = 0
  |
   -------------------------------------------------------------------------------------------

++ ---------   Input file   ---------

&GATEWAY
coord=ozone_130.25.xyz
Basis = ANO-RCC-VTZP
Group = nosymm
End of Input

&SEWARD
End of Input

&SCF
FileOrb
/home/grierjones/DDCASPT2/ozone/multistate/ANO-RCC-VTZP/ozone_130.00/ozone_130.00.ScfOrb

>>> COPY $WorkDir/ozone_130.25.scf.h5 $CurrDir/

&RASSCF
Title= RASSCF
FileOrb
/home/grierjones/DDCASPT2/ozone/multistate/ANO-RCC-VTZP/ozone_130.00/ozone_130.00.RasOrb
CIROOT
3 3 1
NACTEL
4 0 0
Inactive
10
RAS2
3
Symmetry
1
Spin
1
orblisting
all

>>> COPY $WorkDir/ozone_130.25.rasscf.h5 $CurrDir/

>>> COPY $WorkDir/GMJ_Fock_MO.csv $CurrDir/ozone_130.25.GMJ_Fock_MO.csv

&MOTRA
Frozen=0
LUMORB

>>> COPY $WorkDir/GMJ_one_int_indx.csv $CurrDir/ozone_130.25.GMJ_one_int_indx.csv

>>> COPY $WorkDir/GMJ_one_int.csv $CurrDir/ozone_130.25.GMJ_one_int.csv

>>> COPY $WorkDir/GMJ_two_int_indx.csv $CurrDir/ozone_130.25.GMJ_two_int_indx.csv

>>> COPY $WorkDir/GMJ_two_int.csv $CurrDir/ozone_130.25.GMJ_two_int.csv

&CASPT2
Frozen
0

MAXITER
50

>>> FOREACH k IN (1,2,3)

  >>> FOREACH i IN (B,E,F,G,H)

    >>> FOREACH j IN (P,M)

      >>> IF (-FILE GMJ_e2_${i}_${j}_${k}_.csv)

        >>> COPY $WorkDir/GMJ_RHS_${i}_${j}_${k}_.csv $CurrDir/GMJ_RHS_${i}_${j}_${k}_.csv

        >>> COPY $WorkDir/GMJ_IVECW_${i}_${j}_${k}_.csv $CurrDir/GMJ_IVECW_${i}_${j}_${k}_.csv

        >>> COPY $WorkDir/GMJ_IVECX_${i}_${j}_${k}_.csv $CurrDir/GMJ_IVECX_${i}_${j}_${k}_.csv

        >>> COPY $WorkDir/GMJ_IVECC2_${i}_${j}_${k}_.csv $CurrDir/GMJ_IVECC2_${i}_${j}_${k}_.csv

        >>> COPY $WorkDir/GMJ_e2_${i}_${j}_${k}_.csv $CurrDir/GMJ_e2_${i}_${j}_${k}_.csv

      >>> END IF

    >>> END FOREACH

  >>> END FOREACH

>>> END FOREACH

>>> FOREACH j IN (1,2,3)

  >>> FOREACH i IN (A,C,D)

    >>> IF (-FILE GMJ_e2_${i}_${j}_.csv)

      >>> COPY $WorkDir/GMJ_RHS_${i}_${j}_.csv $CurrDir/GMJ_RHS_${i}_${j}_.csv

      >>> COPY $WorkDir/GMJ_IVECW_${i}_${j}_.csv $CurrDir/GMJ_IVECW_${i}_${j}_.csv

      >>> COPY $WorkDir/GMJ_IVECX_${i}_${j}_.csv $CurrDir/GMJ_IVECX_${i}_${j}_.csv

      >>> COPY $WorkDir/GMJ_IVECC2_${i}_${j}_.csv $CurrDir/GMJ_IVECC2_${i}_${j}_.csv

      >>> COPY $WorkDir/GMJ_e2_${i}_${j}_.csv $CurrDir/GMJ_e2_${i}_${j}_.csv

    >>> END IF

  >>> END FOREACH

>>> END FOREACH

-- ----------------------------------

--- Start Module: gateway at Fri Apr 11 19:00:01 2025 ---
 
()()()()()()()()()()()()()()()()()()()()()()()()()()()()()()()()()()()()()()()()()()()()()()()()()()

                                              &GATEWAY

                                   only a single process is used
                       available to each process: 2.0 GB of memory, 1 thread?
()()()()()()()()()()()()()()()()()()()()()()()()()()()()()()()()()()()()()()()()()()()()()()()()()()
 
 
++    Symmetry information:
      ---------------------
 
                    Character Table for C1 
 
                             E  
                    a        1  x, y, xy, Rz, z, xz, Ry, yz, Rx, I
--
 
 
++    Basis set information:
      ----------------------
 
 
      Basis set label: O.ANO-RCC...4S3P2D1F.
 
      Electronic valence basis set:
      ------------------
      Associated Effective Charge   8.000000 au
      Associated Actual Charge      8.000000 au
      Nuclear Model: Point charge
 
      Shell  nPrim  nBasis  Cartesian Spherical Contaminant
         s      14       4        X                  
         p       9       3        X                  
         d       4       2                 X         
         f       3       1                 X         
--
 
 
++    Molecular structure info:
      -------------------------
 
                    ************************************************ 
                    **** Cartesian Coordinates / Bohr, Angstrom **** 
                    ************************************************ 
 
     Center  Label                x              y              z                     x              y              z
        1      O1               1.015875       2.191018       0.000000              0.537578       1.159437       0.000000
        2      O2               0.000000       0.000000       0.000000              0.000000       0.000000       0.000000
        3      O3               1.015875      -2.191018       0.000000              0.537578      -1.159437       0.000000
 
                    *************************************** 
                    *    InterNuclear Distances / Bohr    * 
                    *************************************** 
 
               1 O1            2 O2            3 O3    
    1 O1       0.000000
    2 O2       2.415070        0.000000
    3 O3       4.382037        2.415070        0.000000
 
                    ******************************************* 
                    *    InterNuclear Distances / Angstrom    * 
                    ******************************************* 
 
               1 O1            2 O2            3 O3    
    1 O1       0.000000
    2 O2       1.278000        0.000000
    3 O3       2.318874        1.278000        0.000000
 
                    ************************************** 
                    *    Valence Bond Angles / Degree    * 
                    ************************************** 
                          Atom centers                 Phi
                      1 O1       2 O2       3 O3       130.25
--
 
 
            Nuclear Potential Energy             67.60561065 au
 
--- Stop Module: gateway at Fri Apr 11 19:00:02 2025 /rc=_RC_ALL_IS_WELL_ ---
*** files: xmldump
    saved to directory /home/grierjones/DDCASPT2/ozone/multistate/ANO-RCC-VTZP/ozone_130.25

--- Start Module: seward at Fri Apr 11 19:00:02 2025 ---
 
()()()()()()()()()()()()()()()()()()()()()()()()()()()()()()()()()()()()()()()()()()()()()()()()()()

                                              &SEWARD

                                   only a single process is used
                       available to each process: 2.0 GB of memory, 1 thread?
()()()()()()()()()()()()()()()()()()()()()()()()()()()()()()()()()()()()()()()()()()()()()()()()()()
 
               SEWARD will generate:
                  Multipole Moment integrals up to order  2
                  Kinetic Energy integrals
                  Nuclear Attraction integrals (point charge)
                  One-Electron Hamiltonian integrals
                  Velocity integrals
                  Relativistic Douglas-Kroll-Hess integrals:
                    - Parametrization         : EXP
                    - DKH order of Hamiltonian: 2
                    - DKH order of Properties : 0
                         - multipole moment operators
                         - electric potential operators
                         - contact operators
                  Atomic mean-field integrals
                  Two-Electron Repulsion integrals
 
                   Integrals are discarded if absolute value <: 0.10E-13
                   Integral cutoff threshold is set to       <: 0.10E-15
 
            Nuclear Potential Energy             67.60561065 au
 
 
      Basis set specifications :
      Symmetry species         a  
      Basis functions           90
 
 
  Input file to MOLDEN was generated!
 
forrtl: warning (525): IEEE_DIVIDE_BY_ZERO is signaling
forrtl: warning (526): IEEE_INVALID is signaling
forrtl: warning (528): IEEE_UNDERFLOW is signaling
--- Stop Module: seward at Fri Apr 11 19:00:05 2025 /rc=_RC_ALL_IS_WELL_ ---
*** files: ozone_130.25.GssOrb ozone_130.25.guessorb.h5 ozone_130.25.guessorb.molden xmldump
    saved to directory /home/grierjones/DDCASPT2/ozone/multistate/ANO-RCC-VTZP/ozone_130.25
--- Module seward spent 2 seconds ---

*** symbolic link created: INPORB -> ozone_130.25.GssOrb
--- Start Module: scf at Fri Apr 11 19:00:05 2025 ---
 
()()()()()()()()()()()()()()()()()()()()()()()()()()()()()()()()()()()()()()()()()()()()()()()()()()

                                                &SCF

                                   only a single process is used
                       available to each process: 2.0 GB of memory, 1 thread?
()()()()()()()()()()()()()()()()()()()()()()()()()()()()()()()()()()()()()()()()()()()()()()()()()()
 
++    Input section:
      --------------
 
      Header of the integral files:
      
       Integrals generated by seward 4.2.0  , Fri Apr 11 19:00:02 2025
 
 
      Cartesian coordinates in Angstrom:
      -----------------------------------------------------
      No.  Label        X            Y            Z        
      -----------------------------------------------------
       1   O1         0.53757800   1.15943700   0.00000000
       2   O2         0.00000000   0.00000000   0.00000000
       3   O3         0.53757800  -1.15943700   0.00000000
      -----------------------------------------------------
      Nuclear repulsion energy =   67.60561065
--
 
++    Orbital specifications:
      -----------------------
 
      Symmetry species               1
                                     a
      Frozen orbitals                0
      Occupied orbitals             12
      Secondary orbitals            78
      Deleted orbitals               0
      Total number of orbitals      90
      Number of basis functions     90
--
 
      Molecular charge                           0.000
 
++    Optimization specifications:
      ----------------------------
 
      SCF Algorithm: Conventional
      Minimized density differences are used
      Number of density matrices in core                5
      Maximum number of NDDO SCF iterations           400
      Maximum number of HF SCF iterations             400
      Threshold for SCF energy change            0.10E-08
      Threshold for density matrix               0.10E-03
      Threshold for Fock matrix                  0.15E-03
      Threshold for linear dependence            0.10E-08
      Threshold at which DIIS is turned on       0.15E+00
      Threshold at which QNR/C2DIIS is turned on 0.75E-01
      Threshold for Norm(delta) (QNR/C2DIIS)     0.20E-04
      DIIS extrapolation of the SCF procedure
      All orbitals punched on: SCFORB
--
 
      Input vectors read from INPORB
      Orbital file label: * SCF orbitals
 
 
++ Convergence information
                                   SCF        iterations: Energy and convergence statistics
 
Iter     Tot. SCF        One-elec.       Two-elec.     Energy      Max Dij or  Max Fij      DNorm      TNorm      AccCon     Time
         Energy          Energy          Energy        Change      Delta Norm                                                in Sec.
   1  -224.503221594  -442.837000423   150.728168176   0.00E+00    0.12E-02*   0.65E-03*    0.75E+01   0.11E+03   None         0.
   2  -224.503226839  -442.836555679   150.727718187  -0.52E-05*   0.62E-03*   0.33E-03*    0.70E-02   0.11E+03   EDIIS        0.
   3  -224.503227878  -442.837288269   150.728449738  -0.10E-05*   0.41E-03*   0.32E-03*    0.11E-02   0.11E+03   c2DIIS       0.
   4  -224.503228224  -442.836412636   150.727573759  -0.35E-06*   0.27E-03*   0.13E-03     0.13E-02   0.11E+03   QNRc2DIIS    0.
   5  -224.503228233  -442.837739341   150.728900455  -0.90E-08*   0.14E-03*   0.14E-03     0.58E-03   0.11E+03   QNRc2DIIS    0.
   6  -224.503228328  -442.837099307   150.728260327  -0.95E-07*   0.70E-04*   0.12E-04     0.51E-04   0.11E+03   QNRc2DIIS    0.
   7  -224.503228332  -442.837043167   150.728204183  -0.41E-08*   0.42E-05    0.10E-05     0.74E-04   0.11E+03   QNRc2DIIS    0.
   8  -224.503228332  -442.837078277   150.728239292  -0.18E-10    0.15E-05    0.92E-06     0.26E-03   0.11E+03   QNRc2DIIS    0.
 
       Convergence after  8 Macro Iterations
--
 
 *****************************************************************************************************************************
 *                                                                                                                           *
 *                                             SCF/KS-DFT Program, Final results                                             *
 *                                                                                                                           *
 *                                                                                                                           *
 *                                                                                                                           *
 *                                                       Final Results                                                       *
 *                                                                                                                           *
 *****************************************************************************************************************************
 
::    Total SCF energy                               -224.5032283319
      One-electron energy                            -442.8370782765
      Two-electron energy                             150.7282392919
      Nuclear repulsion energy                         67.6056106527
      Kinetic energy (interpolated)                   225.0337902249
      Virial theorem                                    0.9976423012
      Total spin, S(S+1)                                0.0000000000
      Total spin, S                                     0.0000000000
      Max non-diagonal density matrix element           0.0000021559
      Max non-diagonal Fock matrix element              0.0000004354
 
 
      All orbitals with orbital energies smaller than  E(LUMO)+0.5 are printed
 
++    Molecular orbitals:
      -------------------
 
      Title: SCF orbitals

      Molecular orbitals for symmetry species 1: a  
 
          Orbital            1         2         3         4         5         6         7         8         9        10    
          Energy          -20.9251  -20.7334  -20.7333   -1.7378   -1.4493   -1.0863   -0.8321   -0.8036   -0.7753   -0.5834
          Occ. No.          2.0000    2.0000    2.0000    2.0000    2.0000    2.0000    2.0000    2.0000    2.0000    2.0000
 
        1 O1     1s         0.0023   -0.6665    0.7440   -0.0131    0.0121    0.0111   -0.0101   -0.0231    0.0000    0.0073
        2 O1     2s         0.0031    0.0049   -0.0058    0.3379   -0.5662    0.6130   -0.2180   -0.4306    0.0000    0.0694
        3 O1     3s         0.0018    0.0035   -0.0040   -0.0089    0.0197    0.0188   -0.0186   -0.0512   -0.0000    0.0178
        4 O1     4s         0.0003    0.0007   -0.0008   -0.0004    0.0040    0.0031   -0.0038   -0.0109   -0.0000    0.0041
        5 O1     2px       -0.0007   -0.0011    0.0011   -0.0425    0.0541    0.0959    0.2089   -0.2987    0.0000   -0.5824
        6 O1     3px       -0.0005   -0.0012    0.0010    0.0117   -0.0075   -0.0161   -0.0121    0.0265   -0.0000   -0.0067
        7 O1     4px       -0.0000    0.0005   -0.0007    0.0023    0.0001    0.0006   -0.0006    0.0016   -0.0000    0.0043
        8 O1     2py       -0.0019   -0.0020    0.0027   -0.1126    0.0770    0.1138   -0.3057   -0.2967    0.0000    0.4152
        9 O1     3py       -0.0011   -0.0020    0.0026    0.0137   -0.0163   -0.0191    0.0291    0.0407    0.0000   -0.0050
       10 O1     4py        0.0004    0.0013   -0.0015    0.0011   -0.0037    0.0011    0.0039    0.0035   -0.0000   -0.0031
       11 O1     2pz        0.0000   -0.0000   -0.0000    0.0000    0.0000    0.0000    0.0000    0.0000    0.3844   -0.0000
       12 O1     3pz       -0.0000   -0.0000   -0.0000   -0.0000    0.0000    0.0000   -0.0000   -0.0000   -0.0172    0.0000
       13 O1     4pz        0.0000   -0.0000   -0.0000   -0.0000    0.0000    0.0000   -0.0000   -0.0000   -0.0068    0.0000
       14 O1     3d2-       0.0003    0.0008   -0.0009    0.0134   -0.0134   -0.0117   -0.0026    0.0253    0.0000    0.0031
       15 O1     4d2-       0.0001    0.0005   -0.0005    0.0013   -0.0016   -0.0007   -0.0001    0.0021    0.0000    0.0010
       16 O1     3d1-      -0.0000    0.0000    0.0000    0.0000    0.0000   -0.0000    0.0000   -0.0000   -0.0292    0.0000
       17 O1     4d1-       0.0000    0.0000    0.0000    0.0000    0.0000   -0.0000    0.0000   -0.0000   -0.0047   -0.0000
       18 O1     3d0       -0.0003   -0.0005    0.0006   -0.0105    0.0092    0.0046   -0.0085   -0.0146    0.0000    0.0050
       19 O1     4d0       -0.0002   -0.0004    0.0004   -0.0005    0.0010   -0.0000   -0.0007   -0.0009    0.0000    0.0006
       20 O1     3d1+       0.0000   -0.0000   -0.0000   -0.0000   -0.0000    0.0000   -0.0000   -0.0000   -0.0135   -0.0000
       21 O1     4d1+      -0.0000    0.0000    0.0000    0.0000   -0.0000    0.0000    0.0000    0.0000   -0.0027   -0.0000
       22 O1     3d2+      -0.0005   -0.0007    0.0009   -0.0151    0.0089    0.0059   -0.0258   -0.0136   -0.0000    0.0180
       23 O1     4d2+      -0.0002   -0.0003    0.0004   -0.0021    0.0012    0.0009   -0.0026   -0.0009   -0.0000    0.0028
       24 O1     4f3-       0.0001    0.0001   -0.0001    0.0024   -0.0010    0.0006    0.0075    0.0002   -0.0000   -0.0057
       25 O1     4f2-       0.0000   -0.0000    0.0000   -0.0000   -0.0000    0.0000    0.0000    0.0000    0.0051    0.0000
       26 O1     4f1-       0.0000    0.0001   -0.0002    0.0032   -0.0028   -0.0010    0.0021    0.0034   -0.0000   -0.0010
       27 O1     4f0        0.0000   -0.0000   -0.0000    0.0000    0.0000   -0.0000    0.0000   -0.0000   -0.0038    0.0000
       28 O1     4f1+       0.0000    0.0001   -0.0001    0.0013   -0.0013   -0.0007    0.0003    0.0015    0.0000   -0.0011
       29 O1     4f2+      -0.0000    0.0000    0.0000    0.0000   -0.0000    0.0000    0.0000   -0.0000   -0.0049    0.0000
       30 O1     4f3+       0.0000    0.0002   -0.0002    0.0051   -0.0053   -0.0029    0.0008    0.0070    0.0000   -0.0003
       31 O2     1s         0.9991   -0.0000   -0.0009   -0.0276    0.0000   -0.0167   -0.0076    0.0000    0.0000    0.0000
       32 O2     2s        -0.0061    0.0006    0.0112    0.6211   -0.0000   -0.6552   -0.0813    0.0000    0.0000    0.0000
       33 O2     3s        -0.0044    0.0004    0.0065   -0.0693    0.0000   -0.0165   -0.0139    0.0000    0.0000    0.0000
       34 O2     4s        -0.0010    0.0001    0.0010   -0.0126    0.0000   -0.0042   -0.0044   -0.0000    0.0000    0.0000
       35 O2     2px       -0.0009    0.0002    0.0032    0.0875   -0.0000    0.2091    0.6813    0.0000   -0.0000   -0.0000
       36 O2     3px       -0.0017    0.0001    0.0021   -0.0363    0.0000   -0.0281   -0.0722   -0.0000    0.0000    0.0000
       37 O2     4px        0.0016   -0.0000   -0.0006   -0.0033    0.0000    0.0012   -0.0093   -0.0000    0.0000   -0.0000
       38 O2     2py       -0.0000   -0.0061    0.0003   -0.0000   -0.3325    0.0000   -0.0000    0.5505   -0.0000   -0.1434
       39 O2     3py        0.0000   -0.0039    0.0002    0.0000    0.0642   -0.0000    0.0000   -0.0571   -0.0000   -0.0076
       40 O2     4py       -0.0000    0.0012   -0.0001   -0.0000   -0.0019   -0.0000    0.0000   -0.0092   -0.0000   -0.0003
       41 O2     2pz       -0.0000    0.0000    0.0000    0.0000    0.0000   -0.0000    0.0000    0.0000    0.6766    0.0000
       42 O2     3pz        0.0000    0.0000    0.0000    0.0000    0.0000   -0.0000    0.0000   -0.0000   -0.0465   -0.0000
       43 O2     4pz        0.0000    0.0000    0.0000    0.0000    0.0000    0.0000    0.0000   -0.0000   -0.0166   -0.0000
       44 O2     3d2-       0.0000   -0.0013    0.0001   -0.0000   -0.0367    0.0000   -0.0000    0.0258   -0.0000   -0.0433
       45 O2     4d2-       0.0000   -0.0006    0.0000   -0.0000   -0.0040    0.0000   -0.0000    0.0023   -0.0000   -0.0076
       46 O2     3d1-       0.0000   -0.0000   -0.0000   -0.0000   -0.0000   -0.0000    0.0000    0.0000   -0.0000   -0.0000
       47 O2     4d1-      -0.0000   -0.0000   -0.0000    0.0000   -0.0000   -0.0000    0.0000   -0.0000   -0.0000   -0.0000
       48 O2     3d0        0.0004   -0.0001   -0.0011   -0.0149    0.0000   -0.0056   -0.0139   -0.0000    0.0000    0.0000
       49 O2     4d0        0.0005   -0.0000   -0.0006    0.0009   -0.0000   -0.0002   -0.0007   -0.0000    0.0000    0.0000
       50 O2     3d1+      -0.0000    0.0000    0.0000    0.0000   -0.0000   -0.0000    0.0000    0.0000    0.0287    0.0000
       51 O2     4d1+      -0.0000    0.0000    0.0000   -0.0000   -0.0000   -0.0000    0.0000   -0.0000    0.0042   -0.0000
       52 O2     3d2+       0.0005   -0.0001   -0.0011   -0.0161    0.0000   -0.0019    0.0179    0.0000    0.0000    0.0000
       53 O2     4d2+       0.0002   -0.0000   -0.0005   -0.0016    0.0000   -0.0005    0.0015    0.0000    0.0000    0.0000
       54 O2     4f3-      -0.0000    0.0000   -0.0000    0.0000    0.0032   -0.0000    0.0000   -0.0057    0.0000   -0.0084
       55 O2     4f2-       0.0000   -0.0000   -0.0000   -0.0000   -0.0000    0.0000    0.0000    0.0000   -0.0000   -0.0000
       56 O2     4f1-      -0.0000    0.0001   -0.0000    0.0000    0.0052   -0.0000    0.0000   -0.0044    0.0000    0.0011
       57 O2     4f0        0.0000   -0.0000   -0.0000    0.0000    0.0000   -0.0000   -0.0000   -0.0000   -0.0061    0.0000
       58 O2     4f1+       0.0001   -0.0000   -0.0001   -0.0025    0.0000   -0.0002   -0.0017   -0.0000    0.0000   -0.0000
       59 O2     4f2+       0.0000    0.0000    0.0000    0.0000    0.0000   -0.0000   -0.0000   -0.0000   -0.0071    0.0000
       60 O2     4f3+       0.0001   -0.0000   -0.0002   -0.0096    0.0000   -0.0012   -0.0062   -0.0000    0.0000    0.0000
       61 O3     1s         0.0023    0.7441    0.6664   -0.0131   -0.0121    0.0111   -0.0101    0.0231   -0.0000   -0.0073
       62 O3     2s         0.0031   -0.0055   -0.0052    0.3379    0.5662    0.6130   -0.2180    0.4306   -0.0000   -0.0694
       63 O3     3s         0.0018   -0.0039   -0.0036   -0.0089   -0.0197    0.0188   -0.0186    0.0512   -0.0000   -0.0178
       64 O3     4s         0.0003   -0.0008   -0.0007   -0.0004   -0.0040    0.0031   -0.0038    0.0109   -0.0000   -0.0041
       65 O3     2px       -0.0007    0.0012    0.0010   -0.0425   -0.0541    0.0959    0.2089    0.2987   -0.0000    0.5824
       66 O3     3px       -0.0005    0.0013    0.0009    0.0117    0.0075   -0.0161   -0.0121   -0.0265    0.0000    0.0067
       67 O3     4px       -0.0000   -0.0005   -0.0006    0.0023   -0.0001    0.0006   -0.0006   -0.0016    0.0000   -0.0043
       68 O3     2py        0.0019   -0.0023   -0.0024    0.1126    0.0770   -0.1138    0.3057   -0.2967   -0.0000    0.4152
       69 O3     3py        0.0011   -0.0023   -0.0024   -0.0137   -0.0163    0.0192   -0.0291    0.0407    0.0000   -0.0050
       70 O3     4py       -0.0004    0.0015    0.0014   -0.0011   -0.0037   -0.0011   -0.0039    0.0035    0.0000   -0.0031
       71 O3     2pz        0.0000   -0.0000   -0.0000   -0.0000   -0.0000    0.0000    0.0000    0.0000    0.3844    0.0000
       72 O3     3pz        0.0000   -0.0000   -0.0000   -0.0000   -0.0000    0.0000   -0.0000   -0.0000   -0.0172    0.0000
       73 O3     4pz        0.0000   -0.0000   -0.0000   -0.0000   -0.0000    0.0000   -0.0000    0.0000   -0.0068    0.0000
       74 O3     3d2-      -0.0003    0.0009    0.0008   -0.0134   -0.0134    0.0117    0.0026    0.0253   -0.0000    0.0031
       75 O3     4d2-      -0.0001    0.0005    0.0004   -0.0013   -0.0016    0.0007    0.0001    0.0021   -0.0000    0.0010
       76 O3     3d1-       0.0000   -0.0000   -0.0000   -0.0000   -0.0000    0.0000    0.0000    0.0000    0.0292    0.0000
       77 O3     4d1-       0.0000   -0.0000   -0.0000   -0.0000   -0.0000    0.0000   -0.0000   -0.0000    0.0047    0.0000
       78 O3     3d0       -0.0003    0.0005    0.0005   -0.0105   -0.0092    0.0046   -0.0085    0.0146    0.0000   -0.0050
       79 O3     4d0       -0.0002    0.0004    0.0004   -0.0005   -0.0010   -0.0000   -0.0007    0.0009   -0.0000   -0.0006
       80 O3     3d1+      -0.0000    0.0000    0.0000    0.0000    0.0000   -0.0000   -0.0000   -0.0000   -0.0135   -0.0000
       81 O3     4d1+      -0.0000    0.0000    0.0000    0.0000    0.0000   -0.0000   -0.0000   -0.0000   -0.0027   -0.0000
       82 O3     3d2+      -0.0005    0.0008    0.0008   -0.0151   -0.0089    0.0059   -0.0258    0.0136    0.0000   -0.0180
       83 O3     4d2+      -0.0002    0.0004    0.0004   -0.0021   -0.0012    0.0009   -0.0026    0.0009    0.0000   -0.0028
       84 O3     4f3-      -0.0001    0.0001    0.0000   -0.0024   -0.0010   -0.0006   -0.0075    0.0002    0.0000   -0.0057
       85 O3     4f2-      -0.0000    0.0000    0.0000    0.0000   -0.0000   -0.0000   -0.0000   -0.0000   -0.0051   -0.0000
       86 O3     4f1-      -0.0000    0.0002    0.0001   -0.0032   -0.0028    0.0010   -0.0021    0.0034    0.0000   -0.0010
       87 O3     4f0       -0.0000    0.0000   -0.0000    0.0000    0.0000   -0.0000   -0.0000   -0.0000   -0.0038   -0.0000
       88 O3     4f1+       0.0000   -0.0001   -0.0001    0.0013    0.0013   -0.0007    0.0003   -0.0015    0.0000    0.0011
       89 O3     4f2+      -0.0000    0.0000    0.0000    0.0000    0.0000   -0.0000   -0.0000    0.0000   -0.0049   -0.0000
       90 O3     4f3+       0.0000   -0.0002   -0.0002    0.0051    0.0053   -0.0029    0.0008   -0.0070    0.0000    0.0003
 
          Orbital           11        12        13        14        15        16        17        18        19        20    
          Energy           -0.5336   -0.4971   -0.0448    0.1743    0.1838    0.2357    0.2513    0.3500    0.3501    0.3781
          Occ. No.          2.0000    2.0000    0.0000    0.0000    0.0000    0.0000    0.0000    0.0000    0.0000    0.0000
 
        1 O1     1s         0.0043   -0.0000    0.0000   -0.2025   -0.1259    0.0000   -0.0144    0.0726   -0.0197    0.0000
        2 O1     2s         0.0234   -0.0000    0.0000   -1.4868   -0.9574    0.0000   -0.0084    0.4143   -0.0521    0.0000
        3 O1     3s         0.0170    0.0000    0.0000   -0.8666   -0.5128    0.0000   -0.1425    0.5636   -0.0346    0.0000
        4 O1     4s         0.0050    0.0000    0.0000   -0.1950   -0.1057    0.0000   -0.0440    0.1580   -0.0019    0.0000
        5 O1     2px        0.6624   -0.0000    0.0000    0.4064    0.1881   -0.0000   -0.1209   -0.0406   -0.2211   -0.0000
        6 O1     3px        0.0133    0.0000   -0.0000    0.3878    0.2769   -0.0000    0.2803    0.1978   -0.7721   -0.0000
        7 O1     4px       -0.0043    0.0000   -0.0000    0.0417    0.0682   -0.0000    0.1435    0.1203   -0.3072   -0.0000
        8 O1     2py       -0.0427   -0.0000    0.0000    0.5659    0.8888    0.0000   -0.3604   -0.1019   -0.2598   -0.0000
        9 O1     3py       -0.0156   -0.0000   -0.0000    0.7236    0.7118   -0.0000   -0.2105   -0.7632   -0.1698   -0.0000
       10 O1     4py       -0.0013   -0.0000   -0.0000    0.1104    0.0880    0.0000   -0.0926   -0.1852   -0.0343   -0.0000
       11 O1     2pz       -0.0000   -0.7017    0.6688    0.0000   -0.0000   -0.1467   -0.0000    0.0000    0.0000   -0.1648
       12 O1     3pz        0.0000   -0.0322    0.1664    0.0000   -0.0000    0.3364    0.0000    0.0000    0.0000   -0.9131
       13 O1     4pz        0.0000    0.0068    0.0260    0.0000   -0.0000    0.1935    0.0000    0.0000    0.0000   -0.3674
       14 O1     3d2-      -0.0108   -0.0000    0.0000   -0.0722   -0.0422   -0.0000   -0.0086    0.0325    0.0008    0.0000
       15 O1     4d2-      -0.0012   -0.0000    0.0000   -0.0468   -0.0280   -0.0000   -0.0048    0.0211    0.0144    0.0000
       16 O1     3d1-       0.0000    0.0236    0.0093   -0.0000    0.0000    0.0112   -0.0000   -0.0000    0.0000    0.0027
       17 O1     4d1-       0.0000    0.0058    0.0004   -0.0000    0.0000    0.0030   -0.0000   -0.0000   -0.0000    0.0100
       18 O1     3d0        0.0051   -0.0000   -0.0000    0.0523    0.0416   -0.0000    0.0188   -0.0432   -0.0066   -0.0000
       19 O1     4d0        0.0003   -0.0000   -0.0000    0.0337    0.0283   -0.0000    0.0088   -0.0254   -0.0108   -0.0000
       20 O1     3d1+      -0.0000    0.0103    0.0051   -0.0000    0.0000    0.0035    0.0000   -0.0000   -0.0000    0.0145
       21 O1     4d1+      -0.0000    0.0024    0.0002   -0.0000    0.0000   -0.0002   -0.0000   -0.0000   -0.0000    0.0124
       22 O1     3d2+       0.0037    0.0000   -0.0000    0.0557    0.0484   -0.0000    0.0412   -0.1010    0.0033   -0.0000
       23 O1     4d2+      -0.0007    0.0000   -0.0000    0.0328    0.0361   -0.0000    0.0164   -0.0628   -0.0006   -0.0000
       24 O1     4f3-       0.0011    0.0000   -0.0000   -0.0039   -0.0011   -0.0000    0.0024    0.0104   -0.0032    0.0000
       25 O1     4f2-      -0.0000   -0.0038   -0.0000    0.0000   -0.0000    0.0018    0.0000    0.0000    0.0000   -0.0057
       26 O1     4f1-      -0.0015   -0.0000    0.0000   -0.0056   -0.0047   -0.0000   -0.0007    0.0084    0.0053    0.0000
       27 O1     4f0       -0.0000    0.0016    0.0015   -0.0000    0.0000   -0.0017   -0.0000   -0.0000   -0.0000    0.0059
       28 O1     4f1+       0.0004   -0.0000   -0.0000   -0.0016   -0.0027    0.0000   -0.0009    0.0020    0.0046    0.0000
       29 O1     4f2+      -0.0000    0.0037   -0.0006   -0.0000    0.0000   -0.0012   -0.0000   -0.0000    0.0000    0.0030
       30 O1     4f3+      -0.0034    0.0000    0.0000   -0.0084   -0.0056    0.0000    0.0006    0.0068    0.0091    0.0000
       31 O2     1s         0.0218   -0.0000    0.0000   -0.0000    0.3116   -0.0000   -0.0199   -0.2032    0.0002   -0.0000
       32 O2     2s         0.2634   -0.0000    0.0000   -0.0000    2.2876   -0.0000   -0.2815   -1.1809    0.0014   -0.0000
       33 O2     3s         0.0533   -0.0000    0.0000   -0.0000    1.2171   -0.0000    0.0220   -0.7871    0.0009   -0.0000
       34 O2     4s         0.0132    0.0000   -0.0000   -0.0000    0.2594   -0.0000    0.0018   -0.1335    0.0002   -0.0000
       35 O2     2px       -0.5227    0.0000   -0.0000   -0.0000    0.7285    0.0000   -0.3029   -0.2104    0.0002   -0.0000
       36 O2     3px       -0.0096    0.0000   -0.0000   -0.0000    0.6921   -0.0000    0.2765   -0.7103    0.0008   -0.0000
       37 O2     4px       -0.0021   -0.0000    0.0000   -0.0000    0.1159   -0.0000    0.1463   -0.0923    0.0001    0.0000
       38 O2     2py        0.0000    0.0000   -0.0000    1.4242    0.0000    0.0000   -0.0000   -0.0001   -0.1126    0.0000
       39 O2     3py        0.0000    0.0000   -0.0000    1.4092    0.0000    0.0000   -0.0000    0.0005    0.4378    0.0000
       40 O2     4py        0.0000    0.0000   -0.0000    0.1433    0.0000    0.0000   -0.0000    0.0002    0.2088    0.0000
       41 O2     2pz        0.0000   -0.0000   -0.8691   -0.0000    0.0000    0.0012   -0.0000   -0.0000   -0.0000   -0.0000
       42 O2     3pz        0.0000    0.0000   -0.1878   -0.0000    0.0000    0.3507   -0.0000   -0.0000   -0.0000   -0.0000
       43 O2     4pz        0.0000    0.0000   -0.0212   -0.0000    0.0000    0.1959    0.0000   -0.0000   -0.0000   -0.0000
       44 O2     3d2-       0.0000    0.0000   -0.0000    0.1316    0.0000    0.0000   -0.0000    0.0001    0.0859    0.0000
       45 O2     4d2-       0.0000    0.0000   -0.0000    0.0811    0.0000    0.0000   -0.0000    0.0001    0.0630    0.0000
       46 O2     3d1-      -0.0000   -0.0598    0.0000    0.0000    0.0000    0.0000    0.0000   -0.0000   -0.0000    0.1020
       47 O2     4d1-      -0.0000   -0.0140    0.0000    0.0000    0.0000    0.0000    0.0000   -0.0000   -0.0000    0.0613
       48 O2     3d0        0.0190   -0.0000    0.0000    0.0000   -0.0580    0.0000   -0.0612    0.1557   -0.0002    0.0000
       49 O2     4d0        0.0023   -0.0000   -0.0000    0.0000   -0.0401    0.0000   -0.0300    0.0768   -0.0001    0.0000
       50 O2     3d1+       0.0000   -0.0000    0.0032    0.0000    0.0000   -0.0260   -0.0000    0.0000    0.0000    0.0000
       51 O2     4d1+       0.0000   -0.0000    0.0009    0.0000    0.0000   -0.0108   -0.0000    0.0000   -0.0000   -0.0000
       52 O2     3d2+       0.0391   -0.0000    0.0000    0.0000   -0.0524    0.0000   -0.0936    0.0774   -0.0001    0.0000
       53 O2     4d2+       0.0080   -0.0000   -0.0000    0.0000   -0.0329    0.0000   -0.0389    0.0163   -0.0000    0.0000
       54 O2     4f3-       0.0000    0.0000    0.0000   -0.0082   -0.0000   -0.0000    0.0000    0.0000    0.0009    0.0000
       55 O2     4f2-      -0.0000   -0.0077    0.0000   -0.0000   -0.0000    0.0000    0.0000   -0.0000   -0.0000    0.0065
       56 O2     4f1-      -0.0000   -0.0000    0.0000   -0.0091   -0.0000    0.0000    0.0000   -0.0000   -0.0109   -0.0000
       57 O2     4f0       -0.0000    0.0000   -0.0020    0.0000   -0.0000   -0.0018    0.0000    0.0000    0.0000    0.0000
       58 O2     4f1+      -0.0006   -0.0000   -0.0000    0.0000   -0.0037    0.0000   -0.0047    0.0093   -0.0000    0.0000
       59 O2     4f2+       0.0000    0.0000    0.0009    0.0000   -0.0000   -0.0018    0.0000   -0.0000    0.0000    0.0000
       60 O2     4f3+       0.0048   -0.0000    0.0000    0.0000   -0.0095    0.0000   -0.0086    0.0145   -0.0000    0.0000
       61 O3     1s         0.0043    0.0000   -0.0000    0.2026   -0.1259    0.0000   -0.0144    0.0727    0.0196    0.0000
       62 O3     2s         0.0234    0.0000   -0.0000    1.4869   -0.9573    0.0000   -0.0085    0.4144    0.0512    0.0000
       63 O3     3s         0.0170    0.0000   -0.0000    0.8666   -0.5128    0.0000   -0.1425    0.5636    0.0333    0.0000
       64 O3     4s         0.0050   -0.0000   -0.0000    0.1950   -0.1057    0.0000   -0.0440    0.1580    0.0015    0.0000
       65 O3     2px        0.6624   -0.0000    0.0000   -0.4064    0.1881    0.0000   -0.1209   -0.0401    0.2212   -0.0000
       66 O3     3px        0.0133   -0.0000    0.0000   -0.3878    0.2769   -0.0000    0.2803    0.1996    0.7716    0.0000
       67 O3     4px       -0.0043   -0.0000    0.0000   -0.0417    0.0682   -0.0000    0.1435    0.1210    0.3070    0.0000
       68 O3     2py        0.0426   -0.0000   -0.0000    0.5659   -0.8888   -0.0000    0.3604    0.1013   -0.2600    0.0000
       69 O3     3py        0.0156    0.0000   -0.0000    0.7236   -0.7118    0.0000    0.2105    0.7628   -0.1716    0.0000
       70 O3     4py        0.0013    0.0000    0.0000    0.1104   -0.0880    0.0000    0.0926    0.1852   -0.0348    0.0000
       71 O3     2pz        0.0000    0.7017    0.6688    0.0000   -0.0000   -0.1467   -0.0000   -0.0000   -0.0000    0.1648
       72 O3     3pz       -0.0000    0.0322    0.1664    0.0000   -0.0000    0.3364    0.0000   -0.0000   -0.0000    0.9131
       73 O3     4pz       -0.0000   -0.0068    0.0260   -0.0000    0.0000    0.1935    0.0000   -0.0000   -0.0000    0.3674
       74 O3     3d2-       0.0108   -0.0000    0.0000   -0.0722    0.0422   -0.0000    0.0086   -0.0325    0.0009   -0.0000
       75 O3     4d2-       0.0012   -0.0000    0.0000   -0.0468    0.0280   -0.0000    0.0048   -0.0211    0.0144   -0.0000
       76 O3     3d1-       0.0000    0.0236   -0.0093    0.0000   -0.0000   -0.0112    0.0000    0.0000   -0.0000    0.0027
       77 O3     4d1-       0.0000    0.0058   -0.0004    0.0000   -0.0000   -0.0030    0.0000    0.0000   -0.0000    0.0100
       78 O3     3d0        0.0051   -0.0000    0.0000   -0.0523    0.0416   -0.0000    0.0188   -0.0432    0.0067   -0.0000
       79 O3     4d0        0.0003   -0.0000    0.0000   -0.0337    0.0283   -0.0000    0.0088   -0.0254    0.0108   -0.0000
       80 O3     3d1+      -0.0000   -0.0103    0.0051   -0.0000   -0.0000    0.0035    0.0000    0.0000   -0.0000   -0.0145
       81 O3     4d1+      -0.0000   -0.0024    0.0002   -0.0000   -0.0000   -0.0002    0.0000    0.0000    0.0000   -0.0124
       82 O3     3d2+       0.0037    0.0000   -0.0000   -0.0557    0.0484   -0.0000    0.0412   -0.1011   -0.0031   -0.0000
       83 O3     4d2+      -0.0007   -0.0000    0.0000   -0.0328    0.0361   -0.0000    0.0164   -0.0628    0.0007   -0.0000
       84 O3     4f3-      -0.0011    0.0000    0.0000   -0.0039    0.0011   -0.0000   -0.0024   -0.0104   -0.0032   -0.0000
       85 O3     4f2-      -0.0000   -0.0038    0.0000   -0.0000   -0.0000   -0.0018   -0.0000    0.0000    0.0000   -0.0057
       86 O3     4f1-       0.0015   -0.0000    0.0000   -0.0056    0.0047   -0.0000    0.0007   -0.0084    0.0053   -0.0000
       87 O3     4f0       -0.0000   -0.0016    0.0015    0.0000    0.0000   -0.0017   -0.0000    0.0000    0.0000   -0.0059
       88 O3     4f1+       0.0004   -0.0000    0.0000    0.0016   -0.0027    0.0000   -0.0009    0.0020   -0.0046    0.0000
       89 O3     4f2+      -0.0000   -0.0037   -0.0006   -0.0000    0.0000   -0.0012   -0.0000    0.0000   -0.0000   -0.0030
       90 O3     4f3+      -0.0034   -0.0000    0.0000    0.0084   -0.0056    0.0000    0.0006    0.0068   -0.0091    0.0000
 
          Orbital           21    
          Energy            0.4280
          Occ. No.          0.0000
 
        1 O1     1s        -0.0092
        2 O1     2s        -0.0454
        3 O1     3s         0.2199
        4 O1     4s         0.1146
        5 O1     2px        0.2982
        6 O1     3px        0.6837
        7 O1     4px        0.1833
        8 O1     2py       -0.0609
        9 O1     3py        0.4705
       10 O1     4py        0.1570
       11 O1     2pz        0.0000
       12 O1     3pz       -0.0000
       13 O1     4pz       -0.0000
       14 O1     3d2-      -0.1095
       15 O1     4d2-      -0.0743
       16 O1     3d1-       0.0000
       17 O1     4d1-       0.0000
       18 O1     3d0        0.0368
       19 O1     4d0        0.0248
       20 O1     3d1+      -0.0000
       21 O1     4d1+      -0.0000
       22 O1     3d2+       0.0338
       23 O1     4d2+       0.0187
       24 O1     4f3-       0.0027
       25 O1     4f2-       0.0000
       26 O1     4f1-      -0.0052
       27 O1     4f0       -0.0000
       28 O1     4f1+      -0.0045
       29 O1     4f2+      -0.0000
       30 O1     4f3+      -0.0124
       31 O2     1s         0.1040
       32 O2     2s         0.5526
       33 O2     3s         0.7532
       34 O2     4s         0.2137
       35 O2     2px       -0.5198
       36 O2     3px       -1.0202
       37 O2     4px       -0.3426
       38 O2     2py        0.0000
       39 O2     3py       -0.0000
       40 O2     4py       -0.0000
       41 O2     2pz       -0.0000
       42 O2     3pz       -0.0000
       43 O2     4pz       -0.0000
       44 O2     3d2-      -0.0000
       45 O2     4d2-      -0.0000
       46 O2     3d1-       0.0000
       47 O2     4d1-       0.0000
       48 O2     3d0       -0.0381
       49 O2     4d0       -0.0047
       50 O2     3d1+      -0.0000
       51 O2     4d1+      -0.0000
       52 O2     3d2+      -0.0769
       53 O2     4d2+      -0.0365
       54 O2     4f3-       0.0000
       55 O2     4f2-       0.0000
       56 O2     4f1-       0.0000
       57 O2     4f0        0.0000
       58 O2     4f1+       0.0039
       59 O2     4f2+       0.0000
       60 O2     4f3+       0.0029
       61 O3     1s        -0.0092
       62 O3     2s        -0.0454
       63 O3     3s         0.2199
       64 O3     4s         0.1146
       65 O3     2px        0.2982
       66 O3     3px        0.6837
       67 O3     4px        0.1833
       68 O3     2py        0.0609
       69 O3     3py       -0.4705
       70 O3     4py       -0.1570
       71 O3     2pz        0.0000
       72 O3     3pz        0.0000
       73 O3     4pz        0.0000
       74 O3     3d2-       0.1095
       75 O3     4d2-       0.0743
       76 O3     3d1-       0.0000
       77 O3     4d1-       0.0000
       78 O3     3d0        0.0368
       79 O3     4d0        0.0248
       80 O3     3d1+      -0.0000
       81 O3     4d1+      -0.0000
       82 O3     3d2+       0.0338
       83 O3     4d2+       0.0187
       84 O3     4f3-      -0.0027
       85 O3     4f2-      -0.0000
       86 O3     4f1-       0.0052
       87 O3     4f0       -0.0000
       88 O3     4f1+      -0.0045
       89 O3     4f2+      -0.0000
       90 O3     4f3+      -0.0124
--
 
 
++    Molecular charges:
      ------------------
 
      Mulliken charges per centre and basis function type
      ---------------------------------------------------
 
                O1      O2      O3    
      1s       1.9978  1.9983  1.9978
      2s       1.9471  1.6985  1.9471
      2px      1.8269  1.5931  1.8269
      2pz      1.3791  1.1543  1.3791
      2py      0.9899  1.0365  0.9899
      3s      -0.0021 -0.0260 -0.0021
      3px     -0.0125 -0.0205 -0.0125
      3pz     -0.0095 -0.0141 -0.0095
      3py      0.0035  0.0039  0.0035
      4s       0.0043  0.0022  0.0043
      3d2+     0.0153  0.0373  0.0153
      3d1+     0.0028  0.0070  0.0028
      3d0      0.0057  0.0075  0.0057
      3d1-     0.0125  0.0491  0.0125
      3d2-     0.0135  0.0413  0.0135
      4px      0.0005  0.0015  0.0005
      4pz      0.0013  0.0017  0.0013
      4py      0.0028  0.0032  0.0028
      4d2+     0.0009  0.0063  0.0009
      4d1+     0.0005  0.0009  0.0005
      4d0      0.0000 -0.0002  0.0000
      4d1-     0.0016  0.0125  0.0016
      4d2-     0.0004  0.0051  0.0004
      4f3+     0.0026  0.0029  0.0026
      4f2+     0.0009  0.0016  0.0009
      4f1+     0.0003  0.0004  0.0003
      4f0      0.0009  0.0016  0.0009
      4f1-     0.0010  0.0013  0.0010
      4f2-     0.0012  0.0033  0.0012
      4f3-     0.0023  0.0067  0.0023
      Total    8.1915  7.6170  8.1915
 
      N-E     -0.1915  0.3830 -0.1915
 
      Total electronic charge=   24.000000
 
      Total            charge=   -0.000000
--
 
 
  Input file to MOLDEN was generated!
 
 
++    Static properties:
      ------------------
 
 
      LoProp Charges per center
 

                   O1       O2       O3    
      Nuclear      8.0000   8.0000   8.0000
      Electronic  -8.2037  -7.5926  -8.2037
 
      Total       -0.2037   0.4074  -0.2037
--
 
 
++    Natural Bond Order analysis
      ---------------------------
      Based on LoProp computed density
      -------------------------------------------------------------------------------------
      Atom A       Atom B       Bond Order | Atom A       Atom B       Bond Order
        O1           O2             1.997  |   O2           O3             1.997
      -------------------------------------------------------------------------------------
      NBO located     11.999 core electrons.
      NBO located      3.937 lone pair electrons.
      NBO located      7.987 electrons involved in    2 bonds.
      The remaining    0.078 electrons are to be considered as diffuse
--
 
 
++    Molecular properties:
      ---------------------
 
      Charge (e):
                      =   -0.0000
      Dipole Moment (Debye):
      Origin of the operator (Ang)=    0.0000    0.0000    0.0000
                   X= -5.4702E-01               Y=  4.3905E-06               Z=  7.6907E-14           Total=  5.4702E-01
      Quadrupole Moment (Debye*Ang):
      Origin of the operator (Ang)=    0.3584    0.0000    0.0000
                  XX= -1.6058E+01              XY=  8.2197E-07              XZ=  4.2019E-14              YY= -1.7162E+01
                  YZ=  5.4339E-14              ZZ= -1.4916E+01
      In traceless form (Debye*Ang)
                  XX= -1.9256E-02              XY=  1.2330E-06              XZ=  6.3028E-14              YY= -1.6748E+00
                  YZ=  8.1509E-14              ZZ=  1.6941E+00
--
 
 
  Input file to MOLDEN was generated!
 
 ###############################################################################
 ###############################################################################
 ###                                                                         ###
 ###                                                                         ###
 ###    RunFile label nBas                                                   ###
 ###    was used       78 times                                              ###
 ###                                                                         ###
 ###                                                                         ###
 ###############################################################################
 ###############################################################################
forrtl: warning (528): IEEE_UNDERFLOW is signaling
--- Stop Module: scf at Fri Apr 11 19:00:05 2025 /rc=_RC_ALL_IS_WELL_ ---
*** files: ozone_130.25.LprOrb ozone_130.25.LoProp.molden ozone_130.25.scf.molden ozone_130.25.ScfOrb ozone_130.25.scf.h5 xmldump
    saved to directory /home/grierjones/DDCASPT2/ozone/multistate/ANO-RCC-VTZP/ozone_130.25

>>> COPY /tmp/ozone_130.25/ozone_130.25.scf.h5 /home/grierjones/DDCASPT2/ozone/multistate/ANO-RCC-VTZP/ozone_130.25/

*** symbolic link created: INPORB -> ozone_130.25.ScfOrb
--- Start Module: rasscf at Fri Apr 11 19:00:05 2025 ---
 
()()()()()()()()()()()()()()()()()()()()()()()()()()()()()()()()()()()()()()()()()()()()()()()()()()

                                              &RASSCF

                                   only a single process is used
                       available to each process: 2.0 GB of memory, 1 thread?
()()()()()()()()()()()()()()()()()()()()()()()()()()()()()()()()()()()()()()()()()()()()()()()()()()
 
 
      Header of the ONEINT file:
      --------------------------
      
      Integrals generated by seward 4.2.0  , Fri Apr 11 19:00:02 2025
 
 
      OrdInt status: non-squared
 
 
      Cartesian coordinates in Angstrom:
      -----------------------------------------------------
      No.  Label        X            Y            Z        
      -----------------------------------------------------
       1   O1         0.53757800   1.15943700   0.00000000
       2   O2         0.00000000   0.00000000   0.00000000
       3   O3         0.53757800  -1.15943700   0.00000000
      -----------------------------------------------------
      Nuclear repulsion energy =   67.60561065
 
++    Wave function specifications:
      -----------------------------
 
      Number of closed shell electrons          20
      Number of electrons in active shells       4
      Max number of holes in RAS1 space          0
      Max nr of electrons in RAS3 space          0
      Number of inactive orbitals               10
      Number of active orbitals                  3
      Number of secondary orbitals              77
      Spin quantum number                      0.0
      State symmetry                             1
--
 
++    Orbital specifications:
      -----------------------
 
      Symmetry species                           1
                                                 a
      Frozen orbitals                            0
      Inactive orbitals                         10
      Active orbitals                            3
      RAS1 orbitals                              0
      RAS2 orbitals                              3
      RAS3 orbitals                              0
      Secondary orbitals                        77
      Deleted orbitals                           0
      Number of basis functions                 90
--
 
++    CI expansion specifications:
      ----------------------------
 
      Number of CSFs                             6
      Number of determinants                     6
      Number of root(s) required                 3
      Root chosen for geometry opt.              3
      CI roots used                              1     2     3
      weights                                0.333 0.333 0.333
      highest root included in the CI            3
      max. size of the explicit Hamiltonian      6
--
 
++    Optimization specifications:
      ----------------------------
 
      RASSCF algorithm: Conventional
      Maximum number of macro iterations       200
      Maximum number of SX iterations          100
      Threshold for RASSCF energy            0.100E-07
      Threshold for max MO rotation          0.100E+00
      Threshold for max BLB element          0.100E-03
      Level shift parameter                  0.500E+00
      Make Quasi-Newton update
--
 
      The MO-coefficients are taken from the file:
      /home/grierjones/DDCASPT2/ozone/multistate/ANO-RCC-VTZP/ozone_130.00/ozone_130.00.RasOrb                                        
      Title: RASSCF average (pseudo-natural) orbitals                                      
 
      Total molecular charge    0.00
 
      ************************************************************************************************************************
      *                                                                                                                      *
      *                                            Wave function control section                                             *
      *                                                                                                                      *
      ************************************************************************************************************************
 
 
                                         RASSCF iterations: Energy and convergence statistics
                                         ----------------------------------------------------
 
      Iter CI   SX   CI       RASSCF       Energy    max ROT     max BLB   max BLB  Level Ln srch  Step   QN   Walltime
          iter iter root      energy       change     param      element    value   shift minimum  type update hh:mm:ss
 Nr of preliminary CI iterations:   1
        1   1    4    0  -224.46798202    0.00E+00   0.85E-03   12  24 1 -0.11E-02*  0.28   0.00    SX    NO    0:00:00
        2   1    4    0  -224.46798723   -0.52E-05*  0.60E-03   12  24 1 -0.50E-03*  0.28   0.00    SX    NO    0:00:00
        3   1    4    0  -224.46798865   -0.14E-05*  0.44E-03   12  24 1 -0.31E-03*  0.28   0.00    SX    NO    0:00:00
        4   1    4    0  -224.46798921   -0.56E-06*  0.32E-03    8  19 1 -0.17E-03*  0.28   0.00    SX    NO    0:00:00
        5   1    4    0  -224.46798945   -0.24E-06*  0.48E-03    8  11 1  0.12E-03*  0.28   2.50    LS   YES    0:00:00
        6   1    4    0  -224.46798960   -0.14E-06* -0.40E-03    9  24 1 -0.10E-03*  0.28   1.03    QN   YES    0:00:00
        7   1    4    0  -224.46798971   -0.11E-06*  0.16E-03   12  24 1  0.12E-03*  0.28   0.92    QN   YES    0:00:00
        8   1    4    0  -224.46798975   -0.43E-07*  0.84E-03   12  24 1  0.82E-04   0.28   2.50    QN   YES    0:00:00
        9   1    4    0  -224.46798983   -0.78E-07*  0.19E-03    9  24 1 -0.13E-03*  0.28   0.84    QN   YES    0:00:00
       10   1    4    0  -224.46798986   -0.32E-07*  0.25E-03   12  24 1 -0.48E-04   0.28   1.17    QN   YES    0:00:00
       11   1    4    0  -224.46798989   -0.29E-07*  0.22E-02   12  24 1 -0.35E-04   0.28   2.50    QN   YES    0:00:00
       12   1    4    0  -224.46799002   -0.13E-06* -0.41E-03   10  37 1 -0.98E-04   0.29   0.96    QN   YES    0:00:00
       13   1    4    0  -224.46799006   -0.35E-07* -0.61E-03    9  18 1 -0.46E-04   0.29   2.50    LS   YES    0:00:00
       14   1    4    0  -224.46799007   -0.87E-08   0.30E-03   10  37 1  0.63E-04   0.29   0.64    QN   YES    0:00:00
      Convergence after 14 iterations
 
  Dmat in MO in SXCTL bf call to SXHAM                                                                                    
  mat. size =     3x    3
 
        1.2477409057816682
       -0.0024400008873135      1.7688808794585045
       -0.0003573673039836      0.0010180766797162      0.9833782147598273
       15   1    4    0  -224.46799009   -0.28E-07*  0.30E-03   10  37 1  0.29E-04   0.29   0.64    QN   YES    0:00:00
 
      ************************************************************************************************************************
                                                      Wave function printout:
                       occupation of active orbitals, and spin coupling of open shells (u,d: Spin up or down)
      ************************************************************************************************************************
 
      Note: transformation to natural orbitals
      has been made, which may change the order of the CSFs.
 
      printout of CI-coefficients larger than  0.05 for root  1
      energy=    -224.485756
      conf/sym  111     Coeff  Weight
             1  220   0.91984 0.84611
             2  2ud  -0.06877 0.00473
             4  u2d  -0.36714 0.13479
             6  022  -0.09754 0.00951
 
      printout of CI-coefficients larger than  0.05 for root  2
      energy=    -224.479389
      conf/sym  111     Coeff  Weight
             1  220  -0.13840 0.01915
             2  2ud   0.19348 0.03744
             3  202  -0.40409 0.16329
             4  u2d  -0.43728 0.19121
             5  ud2  -0.43801 0.19185
             6  022   0.63012 0.39706
 
      printout of CI-coefficients larger than  0.05 for root  3
      energy=    -224.438825
      conf/sym  111     Coeff  Weight
             1  220   0.36242 0.13135
             2  2ud   0.27475 0.07549
             3  202  -0.14863 0.02209
             4  u2d   0.78295 0.61300
             5  ud2  -0.07635 0.00583
             6  022   0.39018 0.15224
 
      Natural orbitals and occupation numbers for root  1
      sym 1:   1.937705   1.997749   0.064545
 
      Natural orbitals and occupation numbers for root  2
      sym 1:   0.617652   1.502278   1.880071
 
      Natural orbitals and occupation numbers for root  3
      sym 1:   0.236641   1.999843   1.763515
 
      ************************************************************************************************************************
      *                                                                                                                      *
      *                                                    Final results                                                     *
      *                                                                                                                      *
      ************************************************************************************************************************
 
 
++    Wave function specifications:
      -----------------------------
 
      Number of closed shell electrons          20
      Number of electrons in active shells       4
      Max number of holes in RAS1 space          0
      Max nr of electrons in RAS3 space          0
      Number of inactive orbitals               10
      Number of active orbitals                  3
      Number of secondary orbitals              77
      Spin quantum number                      0.0
      State symmetry                             1
--
 
++    Orbital specifications:
      -----------------------
 
      Symmetry species                           1
                                                 a
      Frozen orbitals                            0
      Inactive orbitals                         10
      Active orbitals                            3
      RAS1 orbitals                              0
      RAS2 orbitals                              3
      RAS3 orbitals                              0
      Secondary orbitals                        77
      Deleted orbitals                           0
      Number of basis functions                 90
--
 
++    CI expansion specifications:
      ----------------------------
 
      Number of CSFs                             6
      Number of determinants                     6
      Number of root(s) required                 3
      CI roots used                              1     2     3
      weights                                0.333 0.333 0.333
      highest root included in the CI            3
      Root passed to geometry opt.               3
--
 
++    Final optimization conditions:
      ------------------------------
 
      Average CI energy                            -224.46799009
      RASSCF energy for state  3                   -224.43882450
      Super-CI energy                                -0.00000003
      RASSCF energy change                           -0.00000003
      Max change in MO coefficients              -0.322E-03
      Max non-diagonal density matrix element     0.304E-03
      Maximum BLB matrix element                  0.289E-04
      (orbital pair  10,  37 in symmetry   1)
      Norm of electronic gradient            0.175E+00
--
 
 
      Final state energy(ies):
      ------------------------
 
::    RASSCF root number  1 Total energy:   -224.48575648
::    RASSCF root number  2 Total energy:   -224.47938930
::    RASSCF root number  3 Total energy:   -224.43882450
 
++    Molecular orbitals:
      -------------------
 
      Pseudonatural active orbitals and approximate occupation numbers
 
 
 
 
      Molecular orbitals for symmetry species 1: a  
 
 
      Orbital                1         2         3         4         5         6         7         8         9        10
      Energy          -20.8313  -20.7442  -20.7319   -1.7068   -1.4359   -1.0704   -0.7875   -0.7794   -0.7707   -0.5560
      Occ. No.          2.0000    2.0000    2.0000    2.0000    2.0000    2.0000    2.0000    2.0000    2.0000    2.0000
 
    1 O1     1s         0.0040    0.9989    0.0018   -0.0132    0.0107    0.0134   -0.0006   -0.0118    0.0217   -0.0003
    2 O1     2s         0.0033   -0.0075   -0.0003    0.3625   -0.5857    0.6230   -0.0126   -0.2132    0.3638   -0.0022
    3 O1     3s         0.0019   -0.0053   -0.0001   -0.0114    0.0193    0.0216   -0.0009   -0.0247    0.0485    0.0001
    4 O1     4s         0.0003   -0.0010    0.0000   -0.0009    0.0041    0.0034   -0.0002   -0.0056    0.0105    0.0001
    5 O1     2px       -0.0006    0.0016   -0.0001   -0.0333    0.0352    0.0824    0.0695    0.1224    0.1659    0.1801
    6 O1     3px       -0.0006    0.0015   -0.0002    0.0115   -0.0061   -0.0158   -0.0047   -0.0083   -0.0253    0.0040
    7 O1     4px       -0.0000   -0.0008   -0.0001    0.0021    0.0003   -0.0000   -0.0006   -0.0017   -0.0015   -0.0014
    8 O1     2py       -0.0020    0.0033    0.0003   -0.1186    0.0802    0.1499   -0.0509   -0.3834    0.3698   -0.0767
    9 O1     3py       -0.0011    0.0033    0.0002    0.0152   -0.0157   -0.0234    0.0036    0.0326   -0.0357   -0.0018
   10 O1     4py        0.0005   -0.0020   -0.0000    0.0010   -0.0038    0.0010    0.0008    0.0062   -0.0040    0.0004
   11 O1     2pz        0.0000    0.0000   -0.0000    0.0011   -0.0033   -0.0033   -0.3945    0.0533   -0.0047   -0.7258
   12 O1     3pz       -0.0000    0.0000    0.0000   -0.0001    0.0001    0.0002    0.0275   -0.0049   -0.0024   -0.0105
   13 O1     4pz       -0.0000   -0.0000   -0.0000   -0.0000    0.0000   -0.0000    0.0050   -0.0009   -0.0001    0.0065
   14 O1     3d2-       0.0003   -0.0012   -0.0000    0.0131   -0.0124   -0.0123   -0.0024   -0.0010   -0.0240   -0.0024
   15 O1     4d2-       0.0001   -0.0007    0.0000    0.0011   -0.0015   -0.0008   -0.0002   -0.0006   -0.0020   -0.0005
   16 O1     3d1-      -0.0000    0.0000   -0.0000   -0.0000   -0.0000    0.0001    0.0251   -0.0050   -0.0014    0.0149
   17 O1     4d1-      -0.0000   -0.0000   -0.0000   -0.0000   -0.0000    0.0000    0.0032   -0.0007   -0.0001    0.0027
   18 O1     3d0       -0.0003    0.0010    0.0000   -0.0111    0.0084    0.0079   -0.0008   -0.0113    0.0152   -0.0002
   19 O1     4d0       -0.0002    0.0005    0.0000   -0.0008    0.0011    0.0006   -0.0001   -0.0009    0.0011   -0.0001
   20 O1     3d1+      -0.0000   -0.0001   -0.0000   -0.0002    0.0004   -0.0004    0.0109   -0.0021   -0.0008    0.0057
   21 O1     4d1+      -0.0000    0.0000   -0.0000   -0.0000    0.0001   -0.0001    0.0015   -0.0003   -0.0001    0.0006
   22 O1     3d2+      -0.0005    0.0010    0.0001   -0.0156    0.0094    0.0068   -0.0046   -0.0298    0.0133   -0.0024
   23 O1     4d2+      -0.0002    0.0006    0.0001   -0.0021    0.0013    0.0006   -0.0005   -0.0034    0.0010   -0.0005
   24 O1     4f3-       0.0001   -0.0001    0.0000    0.0022   -0.0009    0.0004    0.0013    0.0066    0.0002    0.0007
   25 O1     4f2-       0.0000    0.0000    0.0000   -0.0001    0.0000    0.0001   -0.0043    0.0005    0.0005   -0.0025
   26 O1     4f1-       0.0001   -0.0002    0.0000    0.0039   -0.0032   -0.0016    0.0004    0.0035   -0.0039    0.0003
   27 O1     4f0       -0.0000   -0.0000   -0.0000   -0.0000    0.0000   -0.0000    0.0050   -0.0011   -0.0003    0.0033
   28 O1     4f1+       0.0000   -0.0001   -0.0000    0.0016   -0.0016   -0.0011   -0.0007   -0.0004   -0.0023   -0.0010
   29 O1     4f2+      -0.0000    0.0000    0.0000   -0.0001    0.0000    0.0001    0.0039   -0.0007   -0.0000    0.0019
   30 O1     4f3+       0.0000   -0.0003    0.0000    0.0046   -0.0046   -0.0027   -0.0002    0.0017   -0.0058   -0.0001
   31 O2     1s         0.9991   -0.0023   -0.0019   -0.0281   -0.0000   -0.0152   -0.0022   -0.0139   -0.0009    0.0027
   32 O2     2s        -0.0060    0.0080    0.0081    0.6017    0.0147   -0.6641   -0.0296   -0.1869   -0.0078    0.0347
   33 O2     3s        -0.0045    0.0046    0.0047   -0.0608   -0.0003   -0.0255   -0.0045   -0.0302   -0.0021    0.0070
   34 O2     4s        -0.0008    0.0007    0.0008   -0.0121   -0.0000   -0.0047   -0.0012   -0.0077   -0.0006    0.0017
   35 O2     2px       -0.0010    0.0023    0.0023    0.0808   -0.0004    0.1500    0.1248    0.6908    0.1018   -0.0616
   36 O2     3px       -0.0017    0.0015    0.0015   -0.0342   -0.0005   -0.0173   -0.0108   -0.0499   -0.0084   -0.0019
   37 O2     4px        0.0015   -0.0005   -0.0005   -0.0037   -0.0001    0.0013   -0.0025   -0.0115   -0.0020    0.0001
   38 O2     2py       -0.0001    0.0043   -0.0043    0.0033   -0.3027   -0.0091   -0.0227    0.0851   -0.5395    0.0115
   39 O2     3py       -0.0001    0.0028   -0.0028   -0.0006    0.0599    0.0007    0.0028   -0.0087    0.0458    0.0021
   40 O2     4py        0.0001   -0.0008    0.0008   -0.0001   -0.0011    0.0001    0.0005   -0.0015    0.0096    0.0004
   41 O2     2pz        0.0000   -0.0000    0.0000    0.0012    0.0010    0.0010   -0.6882    0.1498    0.0656    0.1028
   42 O2     3pz        0.0000   -0.0000    0.0000   -0.0000   -0.0001   -0.0001    0.0479   -0.0088   -0.0037    0.0034
   43 O2     4pz        0.0000    0.0000   -0.0000    0.0000   -0.0000    0.0000    0.0127   -0.0024   -0.0011   -0.0009
   44 O2     3d2-      -0.0000    0.0009   -0.0009    0.0004   -0.0347   -0.0002   -0.0016    0.0081   -0.0362    0.0085
   45 O2     4d2-      -0.0000    0.0004   -0.0004    0.0000   -0.0035    0.0001   -0.0002    0.0013   -0.0043    0.0016
   46 O2     3d1-      -0.0000   -0.0000   -0.0000   -0.0001   -0.0002    0.0003   -0.0012    0.0004   -0.0016   -0.0438
   47 O2     4d1-       0.0000   -0.0000   -0.0000   -0.0001   -0.0000    0.0001   -0.0001    0.0002   -0.0003   -0.0083
   48 O2     3d0        0.0007   -0.0008   -0.0008   -0.0160    0.0004   -0.0047   -0.0028   -0.0167   -0.0016    0.0023
   49 O2     4d0        0.0005   -0.0004   -0.0004    0.0001    0.0001   -0.0001   -0.0002   -0.0012   -0.0000    0.0003
   50 O2     3d1+       0.0000    0.0000   -0.0000    0.0002   -0.0002   -0.0002   -0.0232    0.0046    0.0018    0.0016
   51 O2     4d1+      -0.0000    0.0000    0.0000    0.0000   -0.0000   -0.0001   -0.0025    0.0005    0.0002    0.0003
   52 O2     3d2+       0.0006   -0.0008   -0.0008   -0.0160    0.0002    0.0012    0.0047    0.0167    0.0043    0.0031
   53 O2     4d2+       0.0003   -0.0004   -0.0004   -0.0014    0.0001    0.0008    0.0007    0.0026    0.0007    0.0005
   54 O2     4f3-       0.0000   -0.0000    0.0000    0.0000    0.0026    0.0001    0.0002   -0.0003    0.0030    0.0017
   55 O2     4f2-       0.0000    0.0000    0.0000    0.0001    0.0000   -0.0000   -0.0002   -0.0000   -0.0002   -0.0064
   56 O2     4f1-       0.0000   -0.0001    0.0001   -0.0002    0.0067    0.0002    0.0003   -0.0011    0.0063   -0.0002
   57 O2     4f0       -0.0000   -0.0000   -0.0000   -0.0000    0.0000    0.0000    0.0080   -0.0015   -0.0006   -0.0004
   58 O2     4f1+       0.0001   -0.0001   -0.0001   -0.0033    0.0000   -0.0006   -0.0008   -0.0042   -0.0006    0.0001
   59 O2     4f2+      -0.0000    0.0000   -0.0000    0.0000    0.0000   -0.0001    0.0061   -0.0012   -0.0005   -0.0003
   60 O2     4f3+       0.0002   -0.0002   -0.0002   -0.0089   -0.0000   -0.0005   -0.0012   -0.0065   -0.0008    0.0006
   61 O3     1s         0.0035   -0.0019    0.9989   -0.0129   -0.0112    0.0126   -0.0025   -0.0044   -0.0249    0.0011
   62 O3     2s         0.0030   -0.0003   -0.0076    0.3479    0.5840    0.6216   -0.0487   -0.0857   -0.4323    0.0052
   63 O3     3s         0.0017   -0.0001   -0.0054   -0.0104   -0.0188    0.0211   -0.0051   -0.0085   -0.0549    0.0036
   64 O3     4s         0.0003    0.0000   -0.0010   -0.0007   -0.0039    0.0033   -0.0011   -0.0021   -0.0118    0.0010
   65 O3     2px       -0.0006   -0.0001    0.0016   -0.0357   -0.0296    0.0812    0.0387    0.1621   -0.0882   -0.0526
   66 O3     3px       -0.0005   -0.0002    0.0015    0.0113    0.0066   -0.0152   -0.0009   -0.0189    0.0223   -0.0010
   67 O3     4px       -0.0000   -0.0001   -0.0008    0.0022   -0.0003    0.0001   -0.0005   -0.0015    0.0006    0.0007
   68 O3     2py        0.0019   -0.0003   -0.0033    0.1129    0.0840   -0.1363    0.0834    0.2308    0.4641   -0.0825
   69 O3     3py        0.0011   -0.0002   -0.0033   -0.0143   -0.0158    0.0218   -0.0069   -0.0193   -0.0430    0.0016
   70 O3     4py       -0.0005    0.0000    0.0021   -0.0009   -0.0038   -0.0012   -0.0013   -0.0041   -0.0054    0.0009
   71 O3     2pz       -0.0000   -0.0000    0.0000   -0.0021    0.0017    0.0023   -0.3255    0.0608    0.0478    0.6433
   72 O3     3pz       -0.0000   -0.0000   -0.0000    0.0001    0.0002   -0.0002    0.0236   -0.0056   -0.0015    0.0071
   73 O3     4pz        0.0000    0.0000    0.0000    0.0000   -0.0000    0.0000    0.0047   -0.0009   -0.0007   -0.0072
   74 O3     3d2-      -0.0003    0.0000    0.0012   -0.0127   -0.0124    0.0118    0.0003    0.0079   -0.0224   -0.0007
   75 O3     4d2-      -0.0001   -0.0000    0.0007   -0.0011   -0.0014    0.0008    0.0002    0.0009   -0.0017   -0.0004
   76 O3     3d1-      -0.0000   -0.0000   -0.0000   -0.0001   -0.0000    0.0000   -0.0245    0.0048    0.0028    0.0193
   77 O3     4d1-      -0.0000   -0.0000   -0.0000   -0.0000   -0.0000    0.0000   -0.0033    0.0006    0.0004    0.0035
   78 O3     3d0       -0.0003    0.0000    0.0009   -0.0109   -0.0091    0.0067   -0.0023   -0.0057   -0.0176    0.0013
   79 O3     4d0       -0.0002    0.0000    0.0005   -0.0007   -0.0012    0.0003   -0.0002   -0.0006   -0.0014    0.0001
   80 O3     3d1+      -0.0000    0.0000    0.0000   -0.0000    0.0001    0.0002    0.0106   -0.0020   -0.0013   -0.0076
   81 O3     4d1+       0.0000    0.0000   -0.0000   -0.0000    0.0000    0.0001    0.0016   -0.0002   -0.0002   -0.0009
   82 O3     3d2+      -0.0004    0.0000    0.0011   -0.0150   -0.0095    0.0067   -0.0062   -0.0228   -0.0222    0.0043
   83 O3     4d2+      -0.0002    0.0001    0.0006   -0.0020   -0.0013    0.0007   -0.0007   -0.0026   -0.0021    0.0006
   84 O3     4f3-      -0.0001   -0.0000    0.0001   -0.0022   -0.0010   -0.0003   -0.0014   -0.0064   -0.0022    0.0010
   85 O3     4f2-      -0.0000    0.0000    0.0000   -0.0000   -0.0000    0.0001    0.0042   -0.0009   -0.0006   -0.0033
   86 O3     4f1-      -0.0001   -0.0000    0.0002   -0.0036   -0.0033    0.0013   -0.0007   -0.0018   -0.0044    0.0005
   87 O3     4f0        0.0000    0.0000    0.0000   -0.0000   -0.0000    0.0000    0.0043   -0.0009   -0.0005   -0.0032
   88 O3     4f1+       0.0000   -0.0000   -0.0001    0.0015    0.0016   -0.0009    0.0001   -0.0008    0.0019   -0.0001
   89 O3     4f2+       0.0000    0.0000    0.0000    0.0000    0.0000   -0.0000    0.0040   -0.0009   -0.0004   -0.0027
   90 O3     4f3+       0.0000    0.0000   -0.0003    0.0046    0.0048   -0.0027    0.0004   -0.0003    0.0064   -0.0003
 
 
      Orbital               11        12        13        14        15        16        17        18        19        20
      Energy            0.0000    0.0000    0.0000    0.1748    0.1878    0.2371    0.2581    0.3516    0.3563    0.3762
      Occ. No.          1.2477    1.7689    0.9834    0.0000    0.0000    0.0000    0.0000    0.0000    0.0000    0.0000
 
    1 O1     1s        -0.0025    0.0006    0.0000   -0.2097   -0.1164   -0.0005    0.0012   -0.0220    0.0729   -0.0004
    2 O1     2s        -0.0039    0.0509    0.0029   -1.5374   -0.8847   -0.0048   -0.0768   -0.0702    0.4149   -0.0029
    3 O1     3s        -0.0127   -0.0021   -0.0005   -0.8942   -0.4676   -0.0017    0.0726   -0.0613    0.5775   -0.0021
    4 O1     4s        -0.0041   -0.0012   -0.0002   -0.2002   -0.0947   -0.0003    0.0262   -0.0100    0.1610   -0.0004
    5 O1     2px       -0.8051    0.4299    0.0373    0.4162    0.1712    0.0022    0.1090   -0.2201   -0.0544    0.0002
    6 O1     3px       -0.0072   -0.0001   -0.0026    0.4211    0.2813   -0.0028   -0.3203   -0.8016    0.0875    0.0012
    7 O1     4px        0.0080   -0.0049   -0.0013    0.0515    0.0767   -0.0025   -0.1641   -0.3214    0.0793   -0.0006
    8 O1     2py        0.1379   -0.2801   -0.0233    0.6046    0.8393    0.0052    0.3968   -0.2227   -0.0943    0.0025
    9 O1     3py        0.0099   -0.0061    0.0008    0.7723    0.6710    0.0057    0.3029   -0.0932   -0.7850    0.0065
   10 O1     4py        0.0002    0.0027    0.0004    0.1185    0.0801    0.0020    0.1113   -0.0133   -0.1865    0.0019
   11 O1     2pz       -0.1125    0.0907    0.5954   -0.0002    0.0034    0.0586    0.0014   -0.0008    0.0044   -0.1893
   12 O1     3pz        0.0026   -0.0002    0.0431    0.0024    0.0007   -0.4051    0.0082    0.0005   -0.0007   -0.9209
   13 O1     4pz        0.0021   -0.0015    0.0029    0.0009    0.0003   -0.2097    0.0034   -0.0003   -0.0003   -0.3635
   14 O1     3d2-       0.0142   -0.0095   -0.0012   -0.0768   -0.0393   -0.0003    0.0066   -0.0012    0.0375   -0.0004
   15 O1     4d2-       0.0020   -0.0021   -0.0002   -0.0499   -0.0264   -0.0001    0.0039    0.0128    0.0247   -0.0003
   16 O1     3d1-       0.0038   -0.0031    0.0098   -0.0001    0.0000   -0.0070    0.0002    0.0000   -0.0003    0.0052
   17 O1     4d1-       0.0007   -0.0006    0.0019   -0.0001   -0.0000    0.0000    0.0000   -0.0000   -0.0002    0.0110
   18 O1     3d0       -0.0038   -0.0011    0.0001    0.0546    0.0397    0.0000   -0.0143   -0.0044   -0.0523    0.0002
   19 O1     4d0       -0.0000   -0.0003    0.0001    0.0350    0.0272    0.0000   -0.0057   -0.0091   -0.0314    0.0002
   20 O1     3d1+       0.0011   -0.0013    0.0069    0.0002    0.0001   -0.0030    0.0001    0.0000    0.0005    0.0150
   21 O1     4d1+       0.0001   -0.0001    0.0017    0.0002    0.0000    0.0006    0.0000    0.0000    0.0005    0.0122
   22 O1     3d2+       0.0005   -0.0131   -0.0010    0.0597    0.0454   -0.0003   -0.0330    0.0103   -0.1091    0.0006
   23 O1     4d2+       0.0008   -0.0021   -0.0001    0.0361    0.0344   -0.0001   -0.0103    0.0040   -0.0659    0.0004
   24 O1     4f3-      -0.0011    0.0036   -0.0000   -0.0040    0.0002   -0.0001   -0.0029   -0.0046    0.0110   -0.0001
   25 O1     4f2-       0.0002    0.0003   -0.0012   -0.0000    0.0002   -0.0023    0.0002   -0.0001    0.0003   -0.0061
   26 O1     4f1-       0.0006    0.0009    0.0001   -0.0060   -0.0052   -0.0000   -0.0007    0.0050    0.0086   -0.0001
   27 O1     4f0        0.0019   -0.0010    0.0005   -0.0000    0.0000    0.0018   -0.0001   -0.0001    0.0000    0.0055
   28 O1     4f1+       0.0027   -0.0014   -0.0003   -0.0020   -0.0028    0.0001    0.0002    0.0042    0.0028    0.0001
   29 O1     4f2+      -0.0008    0.0002    0.0005    0.0000    0.0000    0.0021    0.0001    0.0000    0.0000    0.0035
   30 O1     4f3+       0.0016   -0.0000    0.0004   -0.0088   -0.0049   -0.0000   -0.0002    0.0085    0.0085   -0.0001
   31 O2     1s        -0.0219   -0.0058   -0.0007    0.0179    0.3128    0.0001    0.0491    0.0150   -0.2106    0.0016
   32 O2     2s        -0.2503   -0.0713   -0.0075    0.1309    2.2992    0.0023    0.4769    0.0883   -1.2082    0.0093
   33 O2     3s        -0.0581   -0.0153   -0.0017    0.0729    1.2442   -0.0013    0.1046    0.0642   -0.8434    0.0075
   34 O2     4s        -0.0138   -0.0036   -0.0004    0.0160    0.2655   -0.0003    0.0219    0.0124   -0.1486    0.0016
   35 O2     2px        0.4456    0.1160    0.0105    0.0415    0.7166    0.0052    0.4029    0.0161   -0.1470    0.0015
   36 O2     3px        0.0216    0.0070    0.0009    0.0340    0.6908   -0.0037   -0.1326    0.0570   -0.6759    0.0007
   37 O2     4px        0.0015    0.0005    0.0000    0.0044    0.1145   -0.0020   -0.1251    0.0105   -0.0918   -0.0007
   38 O2     2py       -0.0023   -0.0557   -0.0045    1.4115   -0.0753    0.0031   -0.0062   -0.1282    0.0145    0.0002
   39 O2     3py       -0.0042    0.0223    0.0018    1.4101   -0.0876    0.0062   -0.0111    0.3748    0.0318   -0.0014
   40 O2     4py       -0.0005    0.0035    0.0002    0.1406   -0.0107    0.0007   -0.0007    0.1957    0.0144   -0.0004
   41 O2     2pz       -0.0232    0.0237   -0.7759    0.0003   -0.0041    0.1040   -0.0041    0.0005   -0.0076    0.0101
   42 O2     3pz       -0.0011    0.0035   -0.0785   -0.0004   -0.0015   -0.2580    0.0021   -0.0009   -0.0056    0.0262
   43 O2     4pz        0.0001    0.0001   -0.0023    0.0001   -0.0004   -0.1714    0.0022   -0.0002   -0.0012    0.0094
   44 O2     3d2-      -0.0086    0.0324    0.0016    0.1347   -0.0087    0.0012   -0.0001    0.0821    0.0034   -0.0002
   45 O2     4d2-      -0.0015    0.0066    0.0003    0.0819   -0.0054    0.0006   -0.0002    0.0608    0.0030   -0.0001
   46 O2     3d1-      -0.0064    0.0072   -0.0056   -0.0000   -0.0001    0.0005    0.0001    0.0001    0.0002    0.0954
   47 O2     4d1-      -0.0011    0.0013   -0.0014   -0.0000   -0.0001    0.0005   -0.0000    0.0001    0.0001    0.0592
   48 O2     3d0       -0.0160   -0.0049   -0.0005   -0.0035   -0.0607    0.0008    0.0451   -0.0107    0.1566   -0.0008
   49 O2     4d0       -0.0017   -0.0006   -0.0001   -0.0022   -0.0405    0.0004    0.0218   -0.0054    0.0764   -0.0004
   50 O2     3d1+      -0.0008    0.0004    0.0006    0.0001    0.0001    0.0244   -0.0002    0.0003    0.0002   -0.0004
   51 O2     4d1+      -0.0001    0.0001    0.0008    0.0000    0.0000    0.0110   -0.0001    0.0002    0.0001    0.0000
   52 O2     3d2+      -0.0346   -0.0094   -0.0002   -0.0032   -0.0592    0.0014    0.0856   -0.0061    0.0899   -0.0003
   53 O2     4d2+      -0.0058   -0.0016   -0.0001   -0.0019   -0.0358    0.0006    0.0372   -0.0018    0.0228   -0.0001
   54 O2     4f3-      -0.0022    0.0092    0.0005   -0.0082    0.0005    0.0000    0.0002    0.0013    0.0000   -0.0000
   55 O2     4f2-      -0.0009    0.0011   -0.0005   -0.0000   -0.0000    0.0001    0.0000    0.0000    0.0000    0.0058
   56 O2     4f1-      -0.0000    0.0007    0.0002   -0.0097    0.0007   -0.0000    0.0000   -0.0097   -0.0007    0.0000
   57 O2     4f0        0.0003    0.0001    0.0007    0.0000    0.0000    0.0015    0.0000    0.0000    0.0001   -0.0002
   58 O2     4f1+      -0.0007    0.0000   -0.0002   -0.0002   -0.0046    0.0000    0.0025   -0.0006    0.0081   -0.0000
   59 O2     4f2+       0.0002   -0.0001    0.0012    0.0000    0.0000    0.0015   -0.0000   -0.0000    0.0001   -0.0002
   60 O2     4f3+      -0.0043   -0.0011   -0.0002   -0.0005   -0.0101    0.0001    0.0062   -0.0013    0.0152   -0.0001
   61 O3     1s        -0.0032   -0.0020   -0.0001    0.1953   -0.1399    0.0010   -0.0013    0.0097    0.0768   -0.0006
   62 O3     2s         0.0064   -0.0475   -0.0036    1.4290   -1.0539    0.0059   -0.0941   -0.0021    0.4345   -0.0033
   63 O3     3s        -0.0147   -0.0055   -0.0011    0.8422   -0.5697    0.0058    0.0599   -0.0170    0.5790   -0.0026
   64 O3     4s        -0.0047   -0.0013   -0.0003    0.1909   -0.1176    0.0015    0.0234   -0.0101    0.1600   -0.0005
[...]

>>> COPY /tmp/ozone_130.25/GMJ_IVECC2_E_P_2_.csv /home/grierjones/DDCASPT2/ozone/multistate/ANO-RCC-VTZP/ozone_130.25/GMJ_IVECC2_E_P_2_.csv

>>> COPY /tmp/ozone_130.25/GMJ_e2_E_P_2_.csv /home/grierjones/DDCASPT2/ozone/multistate/ANO-RCC-VTZP/ozone_130.25/GMJ_e2_E_P_2_.csv

>>> END FOREACH

>>> EXPORT j = M

>>> IF (-FILE GMJ_e2_${i}_${j}_${k}_.csv)

>>> COPY /tmp/ozone_130.25/GMJ_RHS_E_M_2_.csv /home/grierjones/DDCASPT2/ozone/multistate/ANO-RCC-VTZP/ozone_130.25/GMJ_RHS_E_M_2_.csv

>>> COPY /tmp/ozone_130.25/GMJ_IVECW_E_M_2_.csv /home/grierjones/DDCASPT2/ozone/multistate/ANO-RCC-VTZP/ozone_130.25/GMJ_IVECW_E_M_2_.csv

>>> COPY /tmp/ozone_130.25/GMJ_IVECX_E_M_2_.csv /home/grierjones/DDCASPT2/ozone/multistate/ANO-RCC-VTZP/ozone_130.25/GMJ_IVECX_E_M_2_.csv

>>> COPY /tmp/ozone_130.25/GMJ_IVECC2_E_M_2_.csv /home/grierjones/DDCASPT2/ozone/multistate/ANO-RCC-VTZP/ozone_130.25/GMJ_IVECC2_E_M_2_.csv

>>> COPY /tmp/ozone_130.25/GMJ_e2_E_M_2_.csv /home/grierjones/DDCASPT2/ozone/multistate/ANO-RCC-VTZP/ozone_130.25/GMJ_e2_E_M_2_.csv

>>> END FOREACH

>>> END FOREACH

>>> EXPORT i = F

>>> EXPORT j = P

>>> IF (-FILE GMJ_e2_${i}_${j}_${k}_.csv)

>>> COPY /tmp/ozone_130.25/GMJ_RHS_F_P_2_.csv /home/grierjones/DDCASPT2/ozone/multistate/ANO-RCC-VTZP/ozone_130.25/GMJ_RHS_F_P_2_.csv

>>> COPY /tmp/ozone_130.25/GMJ_IVECW_F_P_2_.csv /home/grierjones/DDCASPT2/ozone/multistate/ANO-RCC-VTZP/ozone_130.25/GMJ_IVECW_F_P_2_.csv

>>> COPY /tmp/ozone_130.25/GMJ_IVECX_F_P_2_.csv /home/grierjones/DDCASPT2/ozone/multistate/ANO-RCC-VTZP/ozone_130.25/GMJ_IVECX_F_P_2_.csv

>>> COPY /tmp/ozone_130.25/GMJ_IVECC2_F_P_2_.csv /home/grierjones/DDCASPT2/ozone/multistate/ANO-RCC-VTZP/ozone_130.25/GMJ_IVECC2_F_P_2_.csv

>>> COPY /tmp/ozone_130.25/GMJ_e2_F_P_2_.csv /home/grierjones/DDCASPT2/ozone/multistate/ANO-RCC-VTZP/ozone_130.25/GMJ_e2_F_P_2_.csv

>>> END FOREACH

>>> EXPORT j = M

>>> IF (-FILE GMJ_e2_${i}_${j}_${k}_.csv)

>>> COPY /tmp/ozone_130.25/GMJ_RHS_F_M_2_.csv /home/grierjones/DDCASPT2/ozone/multistate/ANO-RCC-VTZP/ozone_130.25/GMJ_RHS_F_M_2_.csv

>>> COPY /tmp/ozone_130.25/GMJ_IVECW_F_M_2_.csv /home/grierjones/DDCASPT2/ozone/multistate/ANO-RCC-VTZP/ozone_130.25/GMJ_IVECW_F_M_2_.csv

>>> COPY /tmp/ozone_130.25/GMJ_IVECX_F_M_2_.csv /home/grierjones/DDCASPT2/ozone/multistate/ANO-RCC-VTZP/ozone_130.25/GMJ_IVECX_F_M_2_.csv

>>> COPY /tmp/ozone_130.25/GMJ_IVECC2_F_M_2_.csv /home/grierjones/DDCASPT2/ozone/multistate/ANO-RCC-VTZP/ozone_130.25/GMJ_IVECC2_F_M_2_.csv

>>> COPY /tmp/ozone_130.25/GMJ_e2_F_M_2_.csv /home/grierjones/DDCASPT2/ozone/multistate/ANO-RCC-VTZP/ozone_130.25/GMJ_e2_F_M_2_.csv

>>> END FOREACH

>>> END FOREACH

>>> EXPORT i = G

>>> EXPORT j = P

>>> IF (-FILE GMJ_e2_${i}_${j}_${k}_.csv)

>>> COPY /tmp/ozone_130.25/GMJ_RHS_G_P_2_.csv /home/grierjones/DDCASPT2/ozone/multistate/ANO-RCC-VTZP/ozone_130.25/GMJ_RHS_G_P_2_.csv

>>> COPY /tmp/ozone_130.25/GMJ_IVECW_G_P_2_.csv /home/grierjones/DDCASPT2/ozone/multistate/ANO-RCC-VTZP/ozone_130.25/GMJ_IVECW_G_P_2_.csv

>>> COPY /tmp/ozone_130.25/GMJ_IVECX_G_P_2_.csv /home/grierjones/DDCASPT2/ozone/multistate/ANO-RCC-VTZP/ozone_130.25/GMJ_IVECX_G_P_2_.csv

>>> COPY /tmp/ozone_130.25/GMJ_IVECC2_G_P_2_.csv /home/grierjones/DDCASPT2/ozone/multistate/ANO-RCC-VTZP/ozone_130.25/GMJ_IVECC2_G_P_2_.csv

>>> COPY /tmp/ozone_130.25/GMJ_e2_G_P_2_.csv /home/grierjones/DDCASPT2/ozone/multistate/ANO-RCC-VTZP/ozone_130.25/GMJ_e2_G_P_2_.csv

>>> END FOREACH

>>> EXPORT j = M

>>> IF (-FILE GMJ_e2_${i}_${j}_${k}_.csv)

>>> COPY /tmp/ozone_130.25/GMJ_RHS_G_M_2_.csv /home/grierjones/DDCASPT2/ozone/multistate/ANO-RCC-VTZP/ozone_130.25/GMJ_RHS_G_M_2_.csv

>>> COPY /tmp/ozone_130.25/GMJ_IVECW_G_M_2_.csv /home/grierjones/DDCASPT2/ozone/multistate/ANO-RCC-VTZP/ozone_130.25/GMJ_IVECW_G_M_2_.csv

>>> COPY /tmp/ozone_130.25/GMJ_IVECX_G_M_2_.csv /home/grierjones/DDCASPT2/ozone/multistate/ANO-RCC-VTZP/ozone_130.25/GMJ_IVECX_G_M_2_.csv

>>> COPY /tmp/ozone_130.25/GMJ_IVECC2_G_M_2_.csv /home/grierjones/DDCASPT2/ozone/multistate/ANO-RCC-VTZP/ozone_130.25/GMJ_IVECC2_G_M_2_.csv

>>> COPY /tmp/ozone_130.25/GMJ_e2_G_M_2_.csv /home/grierjones/DDCASPT2/ozone/multistate/ANO-RCC-VTZP/ozone_130.25/GMJ_e2_G_M_2_.csv

>>> END FOREACH

>>> END FOREACH

>>> EXPORT i = H

>>> EXPORT j = P

>>> IF (-FILE GMJ_e2_${i}_${j}_${k}_.csv)

>>> COPY /tmp/ozone_130.25/GMJ_RHS_H_P_2_.csv /home/grierjones/DDCASPT2/ozone/multistate/ANO-RCC-VTZP/ozone_130.25/GMJ_RHS_H_P_2_.csv

>>> COPY /tmp/ozone_130.25/GMJ_IVECW_H_P_2_.csv /home/grierjones/DDCASPT2/ozone/multistate/ANO-RCC-VTZP/ozone_130.25/GMJ_IVECW_H_P_2_.csv

>>> COPY /tmp/ozone_130.25/GMJ_IVECX_H_P_2_.csv /home/grierjones/DDCASPT2/ozone/multistate/ANO-RCC-VTZP/ozone_130.25/GMJ_IVECX_H_P_2_.csv

>>> COPY /tmp/ozone_130.25/GMJ_IVECC2_H_P_2_.csv /home/grierjones/DDCASPT2/ozone/multistate/ANO-RCC-VTZP/ozone_130.25/GMJ_IVECC2_H_P_2_.csv

>>> COPY /tmp/ozone_130.25/GMJ_e2_H_P_2_.csv /home/grierjones/DDCASPT2/ozone/multistate/ANO-RCC-VTZP/ozone_130.25/GMJ_e2_H_P_2_.csv

>>> END FOREACH

>>> EXPORT j = M

>>> IF (-FILE GMJ_e2_${i}_${j}_${k}_.csv)

>>> COPY /tmp/ozone_130.25/GMJ_RHS_H_M_2_.csv /home/grierjones/DDCASPT2/ozone/multistate/ANO-RCC-VTZP/ozone_130.25/GMJ_RHS_H_M_2_.csv

>>> COPY /tmp/ozone_130.25/GMJ_IVECW_H_M_2_.csv /home/grierjones/DDCASPT2/ozone/multistate/ANO-RCC-VTZP/ozone_130.25/GMJ_IVECW_H_M_2_.csv

>>> COPY /tmp/ozone_130.25/GMJ_IVECX_H_M_2_.csv /home/grierjones/DDCASPT2/ozone/multistate/ANO-RCC-VTZP/ozone_130.25/GMJ_IVECX_H_M_2_.csv

>>> COPY /tmp/ozone_130.25/GMJ_IVECC2_H_M_2_.csv /home/grierjones/DDCASPT2/ozone/multistate/ANO-RCC-VTZP/ozone_130.25/GMJ_IVECC2_H_M_2_.csv

>>> COPY /tmp/ozone_130.25/GMJ_e2_H_M_2_.csv /home/grierjones/DDCASPT2/ozone/multistate/ANO-RCC-VTZP/ozone_130.25/GMJ_e2_H_M_2_.csv

>>> END FOREACH

>>> END FOREACH

>>> END FOREACH

>>> EXPORT k = 3

>>> EXPORT i = B

>>> EXPORT j = P

>>> IF (-FILE GMJ_e2_${i}_${j}_${k}_.csv)

>>> COPY /tmp/ozone_130.25/GMJ_RHS_B_P_3_.csv /home/grierjones/DDCASPT2/ozone/multistate/ANO-RCC-VTZP/ozone_130.25/GMJ_RHS_B_P_3_.csv

>>> COPY /tmp/ozone_130.25/GMJ_IVECW_B_P_3_.csv /home/grierjones/DDCASPT2/ozone/multistate/ANO-RCC-VTZP/ozone_130.25/GMJ_IVECW_B_P_3_.csv

>>> COPY /tmp/ozone_130.25/GMJ_IVECX_B_P_3_.csv /home/grierjones/DDCASPT2/ozone/multistate/ANO-RCC-VTZP/ozone_130.25/GMJ_IVECX_B_P_3_.csv

>>> COPY /tmp/ozone_130.25/GMJ_IVECC2_B_P_3_.csv /home/grierjones/DDCASPT2/ozone/multistate/ANO-RCC-VTZP/ozone_130.25/GMJ_IVECC2_B_P_3_.csv

>>> COPY /tmp/ozone_130.25/GMJ_e2_B_P_3_.csv /home/grierjones/DDCASPT2/ozone/multistate/ANO-RCC-VTZP/ozone_130.25/GMJ_e2_B_P_3_.csv

>>> END FOREACH

>>> EXPORT j = M

>>> IF (-FILE GMJ_e2_${i}_${j}_${k}_.csv)
(Skipped)

>>> END FOREACH

>>> END FOREACH

>>> EXPORT i = E

>>> EXPORT j = P

>>> IF (-FILE GMJ_e2_${i}_${j}_${k}_.csv)

>>> COPY /tmp/ozone_130.25/GMJ_RHS_E_P_3_.csv /home/grierjones/DDCASPT2/ozone/multistate/ANO-RCC-VTZP/ozone_130.25/GMJ_RHS_E_P_3_.csv

>>> COPY /tmp/ozone_130.25/GMJ_IVECW_E_P_3_.csv /home/grierjones/DDCASPT2/ozone/multistate/ANO-RCC-VTZP/ozone_130.25/GMJ_IVECW_E_P_3_.csv

>>> COPY /tmp/ozone_130.25/GMJ_IVECX_E_P_3_.csv /home/grierjones/DDCASPT2/ozone/multistate/ANO-RCC-VTZP/ozone_130.25/GMJ_IVECX_E_P_3_.csv

>>> COPY /tmp/ozone_130.25/GMJ_IVECC2_E_P_3_.csv /home/grierjones/DDCASPT2/ozone/multistate/ANO-RCC-VTZP/ozone_130.25/GMJ_IVECC2_E_P_3_.csv

>>> COPY /tmp/ozone_130.25/GMJ_e2_E_P_3_.csv /home/grierjones/DDCASPT2/ozone/multistate/ANO-RCC-VTZP/ozone_130.25/GMJ_e2_E_P_3_.csv

>>> END FOREACH

>>> EXPORT j = M

>>> IF (-FILE GMJ_e2_${i}_${j}_${k}_.csv)

>>> COPY /tmp/ozone_130.25/GMJ_RHS_E_M_3_.csv /home/grierjones/DDCASPT2/ozone/multistate/ANO-RCC-VTZP/ozone_130.25/GMJ_RHS_E_M_3_.csv

>>> COPY /tmp/ozone_130.25/GMJ_IVECW_E_M_3_.csv /home/grierjones/DDCASPT2/ozone/multistate/ANO-RCC-VTZP/ozone_130.25/GMJ_IVECW_E_M_3_.csv

>>> COPY /tmp/ozone_130.25/GMJ_IVECX_E_M_3_.csv /home/grierjones/DDCASPT2/ozone/multistate/ANO-RCC-VTZP/ozone_130.25/GMJ_IVECX_E_M_3_.csv

>>> COPY /tmp/ozone_130.25/GMJ_IVECC2_E_M_3_.csv /home/grierjones/DDCASPT2/ozone/multistate/ANO-RCC-VTZP/ozone_130.25/GMJ_IVECC2_E_M_3_.csv

>>> COPY /tmp/ozone_130.25/GMJ_e2_E_M_3_.csv /home/grierjones/DDCASPT2/ozone/multistate/ANO-RCC-VTZP/ozone_130.25/GMJ_e2_E_M_3_.csv

>>> END FOREACH

>>> END FOREACH

>>> EXPORT i = F

>>> EXPORT j = P

>>> IF (-FILE GMJ_e2_${i}_${j}_${k}_.csv)

>>> COPY /tmp/ozone_130.25/GMJ_RHS_F_P_3_.csv /home/grierjones/DDCASPT2/ozone/multistate/ANO-RCC-VTZP/ozone_130.25/GMJ_RHS_F_P_3_.csv

>>> COPY /tmp/ozone_130.25/GMJ_IVECW_F_P_3_.csv /home/grierjones/DDCASPT2/ozone/multistate/ANO-RCC-VTZP/ozone_130.25/GMJ_IVECW_F_P_3_.csv

>>> COPY /tmp/ozone_130.25/GMJ_IVECX_F_P_3_.csv /home/grierjones/DDCASPT2/ozone/multistate/ANO-RCC-VTZP/ozone_130.25/GMJ_IVECX_F_P_3_.csv

>>> COPY /tmp/ozone_130.25/GMJ_IVECC2_F_P_3_.csv /home/grierjones/DDCASPT2/ozone/multistate/ANO-RCC-VTZP/ozone_130.25/GMJ_IVECC2_F_P_3_.csv

>>> COPY /tmp/ozone_130.25/GMJ_e2_F_P_3_.csv /home/grierjones/DDCASPT2/ozone/multistate/ANO-RCC-VTZP/ozone_130.25/GMJ_e2_F_P_3_.csv

>>> END FOREACH

>>> EXPORT j = M

>>> IF (-FILE GMJ_e2_${i}_${j}_${k}_.csv)

>>> COPY /tmp/ozone_130.25/GMJ_RHS_F_M_3_.csv /home/grierjones/DDCASPT2/ozone/multistate/ANO-RCC-VTZP/ozone_130.25/GMJ_RHS_F_M_3_.csv

>>> COPY /tmp/ozone_130.25/GMJ_IVECW_F_M_3_.csv /home/grierjones/DDCASPT2/ozone/multistate/ANO-RCC-VTZP/ozone_130.25/GMJ_IVECW_F_M_3_.csv

>>> COPY /tmp/ozone_130.25/GMJ_IVECX_F_M_3_.csv /home/grierjones/DDCASPT2/ozone/multistate/ANO-RCC-VTZP/ozone_130.25/GMJ_IVECX_F_M_3_.csv

>>> COPY /tmp/ozone_130.25/GMJ_IVECC2_F_M_3_.csv /home/grierjones/DDCASPT2/ozone/multistate/ANO-RCC-VTZP/ozone_130.25/GMJ_IVECC2_F_M_3_.csv

>>> COPY /tmp/ozone_130.25/GMJ_e2_F_M_3_.csv /home/grierjones/DDCASPT2/ozone/multistate/ANO-RCC-VTZP/ozone_130.25/GMJ_e2_F_M_3_.csv

>>> END FOREACH

>>> END FOREACH

>>> EXPORT i = G

>>> EXPORT j = P

>>> IF (-FILE GMJ_e2_${i}_${j}_${k}_.csv)

>>> COPY /tmp/ozone_130.25/GMJ_RHS_G_P_3_.csv /home/grierjones/DDCASPT2/ozone/multistate/ANO-RCC-VTZP/ozone_130.25/GMJ_RHS_G_P_3_.csv

>>> COPY /tmp/ozone_130.25/GMJ_IVECW_G_P_3_.csv /home/grierjones/DDCASPT2/ozone/multistate/ANO-RCC-VTZP/ozone_130.25/GMJ_IVECW_G_P_3_.csv

>>> COPY /tmp/ozone_130.25/GMJ_IVECX_G_P_3_.csv /home/grierjones/DDCASPT2/ozone/multistate/ANO-RCC-VTZP/ozone_130.25/GMJ_IVECX_G_P_3_.csv

>>> COPY /tmp/ozone_130.25/GMJ_IVECC2_G_P_3_.csv /home/grierjones/DDCASPT2/ozone/multistate/ANO-RCC-VTZP/ozone_130.25/GMJ_IVECC2_G_P_3_.csv

>>> COPY /tmp/ozone_130.25/GMJ_e2_G_P_3_.csv /home/grierjones/DDCASPT2/ozone/multistate/ANO-RCC-VTZP/ozone_130.25/GMJ_e2_G_P_3_.csv

>>> END FOREACH

>>> EXPORT j = M

>>> IF (-FILE GMJ_e2_${i}_${j}_${k}_.csv)

>>> COPY /tmp/ozone_130.25/GMJ_RHS_G_M_3_.csv /home/grierjones/DDCASPT2/ozone/multistate/ANO-RCC-VTZP/ozone_130.25/GMJ_RHS_G_M_3_.csv

>>> COPY /tmp/ozone_130.25/GMJ_IVECW_G_M_3_.csv /home/grierjones/DDCASPT2/ozone/multistate/ANO-RCC-VTZP/ozone_130.25/GMJ_IVECW_G_M_3_.csv

>>> COPY /tmp/ozone_130.25/GMJ_IVECX_G_M_3_.csv /home/grierjones/DDCASPT2/ozone/multistate/ANO-RCC-VTZP/ozone_130.25/GMJ_IVECX_G_M_3_.csv

>>> COPY /tmp/ozone_130.25/GMJ_IVECC2_G_M_3_.csv /home/grierjones/DDCASPT2/ozone/multistate/ANO-RCC-VTZP/ozone_130.25/GMJ_IVECC2_G_M_3_.csv

>>> COPY /tmp/ozone_130.25/GMJ_e2_G_M_3_.csv /home/grierjones/DDCASPT2/ozone/multistate/ANO-RCC-VTZP/ozone_130.25/GMJ_e2_G_M_3_.csv

>>> END FOREACH

>>> END FOREACH

>>> EXPORT i = H

>>> EXPORT j = P

>>> IF (-FILE GMJ_e2_${i}_${j}_${k}_.csv)

>>> COPY /tmp/ozone_130.25/GMJ_RHS_H_P_3_.csv /home/grierjones/DDCASPT2/ozone/multistate/ANO-RCC-VTZP/ozone_130.25/GMJ_RHS_H_P_3_.csv

>>> COPY /tmp/ozone_130.25/GMJ_IVECW_H_P_3_.csv /home/grierjones/DDCASPT2/ozone/multistate/ANO-RCC-VTZP/ozone_130.25/GMJ_IVECW_H_P_3_.csv

>>> COPY /tmp/ozone_130.25/GMJ_IVECX_H_P_3_.csv /home/grierjones/DDCASPT2/ozone/multistate/ANO-RCC-VTZP/ozone_130.25/GMJ_IVECX_H_P_3_.csv

>>> COPY /tmp/ozone_130.25/GMJ_IVECC2_H_P_3_.csv /home/grierjones/DDCASPT2/ozone/multistate/ANO-RCC-VTZP/ozone_130.25/GMJ_IVECC2_H_P_3_.csv

>>> COPY /tmp/ozone_130.25/GMJ_e2_H_P_3_.csv /home/grierjones/DDCASPT2/ozone/multistate/ANO-RCC-VTZP/ozone_130.25/GMJ_e2_H_P_3_.csv

>>> END FOREACH

>>> EXPORT j = M

>>> IF (-FILE GMJ_e2_${i}_${j}_${k}_.csv)

>>> COPY /tmp/ozone_130.25/GMJ_RHS_H_M_3_.csv /home/grierjones/DDCASPT2/ozone/multistate/ANO-RCC-VTZP/ozone_130.25/GMJ_RHS_H_M_3_.csv

>>> COPY /tmp/ozone_130.25/GMJ_IVECW_H_M_3_.csv /home/grierjones/DDCASPT2/ozone/multistate/ANO-RCC-VTZP/ozone_130.25/GMJ_IVECW_H_M_3_.csv

>>> COPY /tmp/ozone_130.25/GMJ_IVECX_H_M_3_.csv /home/grierjones/DDCASPT2/ozone/multistate/ANO-RCC-VTZP/ozone_130.25/GMJ_IVECX_H_M_3_.csv

>>> COPY /tmp/ozone_130.25/GMJ_IVECC2_H_M_3_.csv /home/grierjones/DDCASPT2/ozone/multistate/ANO-RCC-VTZP/ozone_130.25/GMJ_IVECC2_H_M_3_.csv

>>> COPY /tmp/ozone_130.25/GMJ_e2_H_M_3_.csv /home/grierjones/DDCASPT2/ozone/multistate/ANO-RCC-VTZP/ozone_130.25/GMJ_e2_H_M_3_.csv

>>> END FOREACH

>>> END FOREACH

>>> END FOREACH

>>> EXPORT j = 1

>>> EXPORT i = A

>>> IF (-FILE GMJ_e2_${i}_${j}_.csv)

>>> COPY /tmp/ozone_130.25/GMJ_RHS_A_1_.csv /home/grierjones/DDCASPT2/ozone/multistate/ANO-RCC-VTZP/ozone_130.25/GMJ_RHS_A_1_.csv

>>> COPY /tmp/ozone_130.25/GMJ_IVECW_A_1_.csv /home/grierjones/DDCASPT2/ozone/multistate/ANO-RCC-VTZP/ozone_130.25/GMJ_IVECW_A_1_.csv

>>> COPY /tmp/ozone_130.25/GMJ_IVECX_A_1_.csv /home/grierjones/DDCASPT2/ozone/multistate/ANO-RCC-VTZP/ozone_130.25/GMJ_IVECX_A_1_.csv

>>> COPY /tmp/ozone_130.25/GMJ_IVECC2_A_1_.csv /home/grierjones/DDCASPT2/ozone/multistate/ANO-RCC-VTZP/ozone_130.25/GMJ_IVECC2_A_1_.csv

>>> COPY /tmp/ozone_130.25/GMJ_e2_A_1_.csv /home/grierjones/DDCASPT2/ozone/multistate/ANO-RCC-VTZP/ozone_130.25/GMJ_e2_A_1_.csv

>>> END FOREACH

>>> EXPORT i = C

>>> IF (-FILE GMJ_e2_${i}_${j}_.csv)

>>> COPY /tmp/ozone_130.25/GMJ_RHS_C_1_.csv /home/grierjones/DDCASPT2/ozone/multistate/ANO-RCC-VTZP/ozone_130.25/GMJ_RHS_C_1_.csv

>>> COPY /tmp/ozone_130.25/GMJ_IVECW_C_1_.csv /home/grierjones/DDCASPT2/ozone/multistate/ANO-RCC-VTZP/ozone_130.25/GMJ_IVECW_C_1_.csv

>>> COPY /tmp/ozone_130.25/GMJ_IVECX_C_1_.csv /home/grierjones/DDCASPT2/ozone/multistate/ANO-RCC-VTZP/ozone_130.25/GMJ_IVECX_C_1_.csv

>>> COPY /tmp/ozone_130.25/GMJ_IVECC2_C_1_.csv /home/grierjones/DDCASPT2/ozone/multistate/ANO-RCC-VTZP/ozone_130.25/GMJ_IVECC2_C_1_.csv

>>> COPY /tmp/ozone_130.25/GMJ_e2_C_1_.csv /home/grierjones/DDCASPT2/ozone/multistate/ANO-RCC-VTZP/ozone_130.25/GMJ_e2_C_1_.csv

>>> END FOREACH

>>> EXPORT i = D

>>> IF (-FILE GMJ_e2_${i}_${j}_.csv)

>>> COPY /tmp/ozone_130.25/GMJ_RHS_D_1_.csv /home/grierjones/DDCASPT2/ozone/multistate/ANO-RCC-VTZP/ozone_130.25/GMJ_RHS_D_1_.csv

>>> COPY /tmp/ozone_130.25/GMJ_IVECW_D_1_.csv /home/grierjones/DDCASPT2/ozone/multistate/ANO-RCC-VTZP/ozone_130.25/GMJ_IVECW_D_1_.csv

>>> COPY /tmp/ozone_130.25/GMJ_IVECX_D_1_.csv /home/grierjones/DDCASPT2/ozone/multistate/ANO-RCC-VTZP/ozone_130.25/GMJ_IVECX_D_1_.csv

>>> COPY /tmp/ozone_130.25/GMJ_IVECC2_D_1_.csv /home/grierjones/DDCASPT2/ozone/multistate/ANO-RCC-VTZP/ozone_130.25/GMJ_IVECC2_D_1_.csv

>>> COPY /tmp/ozone_130.25/GMJ_e2_D_1_.csv /home/grierjones/DDCASPT2/ozone/multistate/ANO-RCC-VTZP/ozone_130.25/GMJ_e2_D_1_.csv

>>> END FOREACH

>>> END FOREACH

>>> EXPORT j = 2

>>> EXPORT i = A

>>> IF (-FILE GMJ_e2_${i}_${j}_.csv)

>>> COPY /tmp/ozone_130.25/GMJ_RHS_A_2_.csv /home/grierjones/DDCASPT2/ozone/multistate/ANO-RCC-VTZP/ozone_130.25/GMJ_RHS_A_2_.csv

>>> COPY /tmp/ozone_130.25/GMJ_IVECW_A_2_.csv /home/grierjones/DDCASPT2/ozone/multistate/ANO-RCC-VTZP/ozone_130.25/GMJ_IVECW_A_2_.csv

>>> COPY /tmp/ozone_130.25/GMJ_IVECX_A_2_.csv /home/grierjones/DDCASPT2/ozone/multistate/ANO-RCC-VTZP/ozone_130.25/GMJ_IVECX_A_2_.csv

>>> COPY /tmp/ozone_130.25/GMJ_IVECC2_A_2_.csv /home/grierjones/DDCASPT2/ozone/multistate/ANO-RCC-VTZP/ozone_130.25/GMJ_IVECC2_A_2_.csv

>>> COPY /tmp/ozone_130.25/GMJ_e2_A_2_.csv /home/grierjones/DDCASPT2/ozone/multistate/ANO-RCC-VTZP/ozone_130.25/GMJ_e2_A_2_.csv

>>> END FOREACH

>>> EXPORT i = C

>>> IF (-FILE GMJ_e2_${i}_${j}_.csv)

>>> COPY /tmp/ozone_130.25/GMJ_RHS_C_2_.csv /home/grierjones/DDCASPT2/ozone/multistate/ANO-RCC-VTZP/ozone_130.25/GMJ_RHS_C_2_.csv

>>> COPY /tmp/ozone_130.25/GMJ_IVECW_C_2_.csv /home/grierjones/DDCASPT2/ozone/multistate/ANO-RCC-VTZP/ozone_130.25/GMJ_IVECW_C_2_.csv

>>> COPY /tmp/ozone_130.25/GMJ_IVECX_C_2_.csv /home/grierjones/DDCASPT2/ozone/multistate/ANO-RCC-VTZP/ozone_130.25/GMJ_IVECX_C_2_.csv

>>> COPY /tmp/ozone_130.25/GMJ_IVECC2_C_2_.csv /home/grierjones/DDCASPT2/ozone/multistate/ANO-RCC-VTZP/ozone_130.25/GMJ_IVECC2_C_2_.csv

>>> COPY /tmp/ozone_130.25/GMJ_e2_C_2_.csv /home/grierjones/DDCASPT2/ozone/multistate/ANO-RCC-VTZP/ozone_130.25/GMJ_e2_C_2_.csv

>>> END FOREACH

>>> EXPORT i = D

>>> IF (-FILE GMJ_e2_${i}_${j}_.csv)

>>> COPY /tmp/ozone_130.25/GMJ_RHS_D_2_.csv /home/grierjones/DDCASPT2/ozone/multistate/ANO-RCC-VTZP/ozone_130.25/GMJ_RHS_D_2_.csv

>>> COPY /tmp/ozone_130.25/GMJ_IVECW_D_2_.csv /home/grierjones/DDCASPT2/ozone/multistate/ANO-RCC-VTZP/ozone_130.25/GMJ_IVECW_D_2_.csv

>>> COPY /tmp/ozone_130.25/GMJ_IVECX_D_2_.csv /home/grierjones/DDCASPT2/ozone/multistate/ANO-RCC-VTZP/ozone_130.25/GMJ_IVECX_D_2_.csv

>>> COPY /tmp/ozone_130.25/GMJ_IVECC2_D_2_.csv /home/grierjones/DDCASPT2/ozone/multistate/ANO-RCC-VTZP/ozone_130.25/GMJ_IVECC2_D_2_.csv

>>> COPY /tmp/ozone_130.25/GMJ_e2_D_2_.csv /home/grierjones/DDCASPT2/ozone/multistate/ANO-RCC-VTZP/ozone_130.25/GMJ_e2_D_2_.csv

>>> END FOREACH

>>> END FOREACH

>>> EXPORT j = 3

>>> EXPORT i = A

>>> IF (-FILE GMJ_e2_${i}_${j}_.csv)

>>> COPY /tmp/ozone_130.25/GMJ_RHS_A_3_.csv /home/grierjones/DDCASPT2/ozone/multistate/ANO-RCC-VTZP/ozone_130.25/GMJ_RHS_A_3_.csv

>>> COPY /tmp/ozone_130.25/GMJ_IVECW_A_3_.csv /home/grierjones/DDCASPT2/ozone/multistate/ANO-RCC-VTZP/ozone_130.25/GMJ_IVECW_A_3_.csv

>>> COPY /tmp/ozone_130.25/GMJ_IVECX_A_3_.csv /home/grierjones/DDCASPT2/ozone/multistate/ANO-RCC-VTZP/ozone_130.25/GMJ_IVECX_A_3_.csv

>>> COPY /tmp/ozone_130.25/GMJ_IVECC2_A_3_.csv /home/grierjones/DDCASPT2/ozone/multistate/ANO-RCC-VTZP/ozone_130.25/GMJ_IVECC2_A_3_.csv

>>> COPY /tmp/ozone_130.25/GMJ_e2_A_3_.csv /home/grierjones/DDCASPT2/ozone/multistate/ANO-RCC-VTZP/ozone_130.25/GMJ_e2_A_3_.csv

>>> END FOREACH

>>> EXPORT i = C

>>> IF (-FILE GMJ_e2_${i}_${j}_.csv)

>>> COPY /tmp/ozone_130.25/GMJ_RHS_C_3_.csv /home/grierjones/DDCASPT2/ozone/multistate/ANO-RCC-VTZP/ozone_130.25/GMJ_RHS_C_3_.csv

>>> COPY /tmp/ozone_130.25/GMJ_IVECW_C_3_.csv /home/grierjones/DDCASPT2/ozone/multistate/ANO-RCC-VTZP/ozone_130.25/GMJ_IVECW_C_3_.csv

>>> COPY /tmp/ozone_130.25/GMJ_IVECX_C_3_.csv /home/grierjones/DDCASPT2/ozone/multistate/ANO-RCC-VTZP/ozone_130.25/GMJ_IVECX_C_3_.csv

>>> COPY /tmp/ozone_130.25/GMJ_IVECC2_C_3_.csv /home/grierjones/DDCASPT2/ozone/multistate/ANO-RCC-VTZP/ozone_130.25/GMJ_IVECC2_C_3_.csv

>>> COPY /tmp/ozone_130.25/GMJ_e2_C_3_.csv /home/grierjones/DDCASPT2/ozone/multistate/ANO-RCC-VTZP/ozone_130.25/GMJ_e2_C_3_.csv

>>> END FOREACH

>>> EXPORT i = D

>>> IF (-FILE GMJ_e2_${i}_${j}_.csv)

>>> COPY /tmp/ozone_130.25/GMJ_RHS_D_3_.csv /home/grierjones/DDCASPT2/ozone/multistate/ANO-RCC-VTZP/ozone_130.25/GMJ_RHS_D_3_.csv

>>> COPY /tmp/ozone_130.25/GMJ_IVECW_D_3_.csv /home/grierjones/DDCASPT2/ozone/multistate/ANO-RCC-VTZP/ozone_130.25/GMJ_IVECW_D_3_.csv

>>> COPY /tmp/ozone_130.25/GMJ_IVECX_D_3_.csv /home/grierjones/DDCASPT2/ozone/multistate/ANO-RCC-VTZP/ozone_130.25/GMJ_IVECX_D_3_.csv

>>> COPY /tmp/ozone_130.25/GMJ_IVECC2_D_3_.csv /home/grierjones/DDCASPT2/ozone/multistate/ANO-RCC-VTZP/ozone_130.25/GMJ_IVECC2_D_3_.csv

>>> COPY /tmp/ozone_130.25/GMJ_e2_D_3_.csv /home/grierjones/DDCASPT2/ozone/multistate/ANO-RCC-VTZP/ozone_130.25/GMJ_e2_D_3_.csv

>>> END FOREACH

>>> END FOREACH

.########################.
.# Non-zero return code #.
.########################.

    Timing: Wall=24.70 User=16.02 System=8.67
********************************************
*** WorkDir at /tmp/ozone_130.25 cleaned ***
********************************************
