************************************************************************************
*** WorkDir at /lustre/isaac/scratch/gjones39/condo_cluster/1.42/2739831 cleaned ***
************************************************************************************
   This run of MOLCAS is using the pymolcas driver

                             OPE
                             OPE          NMOL  CASOP  ENMOLC A   SO
                 OPE        NMOLC        AS  OP EN  MO LC     AS  OP
                OPENM       OL CA        SO  PE NM  OL CA     SOP EN
                OP EN      MO   LC       AS  OP ENMOL  CASO   PENMOL
                OP  EN     MO   LC       AS  OP EN     MO     LC ASO
               OP   E  NMOL  C  AS       OP  EN MO     LC     AS  OP
               OP  E   NMO   LC AS        OPEN  MO     LCASOP EN   M
               O  PEN   MO  LCA  SO
            OPE   NMO   L   CAS    OP
        OPENMOL  CASOP     ENMOL   CASOPE
     OPENMOLCA   SOPENMOLCASOPEN   MOLCASOPE
    OPENMOLCAS   OP           EN   MOL    CAS
    OPENMOLCAS       OP  ENM        O     LCA
    OPENMOLCAS    OPEN  MOLCASO     P  E  NMO
    OPENMOLCAS     OP               E  N  MOL
    OPENMOLCA   SO           PENM   O  L  CAS    OPEN    MO    LCAS
    OPENMOLCA   SOP           ENM   O  L  CAS   OP  EN  MOLC  AS   O
    OPENMOLCA   SOPE           NM      O  LCA   S      OP  EN MO
    OPENMOLC                AS         O  PEN   M      OL  CA  SOPE
    OPENMO        LCASOPE  NMOL        C  ASO   P      ENMOLC     AS
    OPE     NMO      LCA  SO     P     E   NM   OL  CA SO  PE N   MO
          OPENMOLCA            SOPE   NMO        LCAS  O    P  ENMO
     OPENMOLCASOPENMOLCASOPENMOLCASOPENMOLCA
        OPENMOLCASOPENMOLCASOPENMOLCASOPE
            OPENMOLCASOPENMOLCASOPENM
               OPENMOLCASOPENMOLCA        version: 9d324f811-dirty
                   OPENMOLCASO
                       OPE                tag:

 OpenMolcas is free software; you can redistribute it and/or modify it
 under the terms of the GNU Lesser General Public License version 2.1.
 OpenMolcas is distributed in the hope that it will be useful, but it
 is provided "as is" and without any express or implied warranties.
 For more details see the full text of the license in the file
 LICENSE or in <http://www.gnu.org/licenses/>.

                 Copyright (C) The OpenMolcas Authors
           For the author list and the recommended citation,
                   consult the file CONTRIBUTORS.md

           *************************************************
           * pymolcas version py2.05                       *
           *   build e4ca6ec286f2c75fb321fe84d41c6781      *
           *   (after the EMIL interpreter by V. Veryazov) *
           *************************************************

configuration info
------------------
C Compiler ID: GNU
C flags: -std=gnu99
Fortran Compiler ID: GNU
Fortran flags: -cpp -fno-aggressive-loop-optimizations -fdefault-integer-8
Definitions: _MOLCAS_;_I8_;_LINUX_
Parallel: OFF (GA=OFF)


   --------------------------------------------------------------------------------
  |
  |              Project: 1.42
  |       Submitted from: /lustre/isaac/scratch/gjones39/condo_cluster/1.42
  |         Scratch area: /lustre/isaac/scratch/gjones39/condo_cluster/1.42/2739831
  |      Save outputs to: /lustre/isaac/scratch/gjones39/condo_cluster/1.42
  |               Molcas: /lustre/isaac/proj/UTK0022/GMJ/Test/build
  |
  | Scratch area is empty
  |
  |       MOLCAS_DRIVER = /nfs/home/gjones39/bin/pymolcas
  | MOLCAS_KEEP_WORKDIR = NO
  |  MOLCAS_NEW_WORKDIR = YES
  |       MOLCAS_NPROCS = 1
  |       MOLCAS_SOURCE = /lustre/isaac/proj/UTK0022/GMJ/Test
  |    MOLCAS_STRUCTURE = 0
  |
   --------------------------------------------------------------------------------

++ ---------   Input file   ---------

&GATEWAY
coord=1.42.xyz
Basis = ANO-RCC-VDZP
Group = nosymm
Expert
End of Input

&SEWARD
End of Input

&SCF
UHF
charge
2
spin
5

>>> COPY $WorkDir/1.42.scf.h5 $CurrDir/

&RASSCF
Title= RASSCF
FileOrb
/lustre/isaac/scratch/gjones39/condo_cluster/1.40/1.40.RasOrb
NACTEL
10 0 0
RAS2
14
Symmetry
1
Spin
5
charge
2
orblisting
all
ITERation
300 200

>>> COPY $WorkDir/1.42.rasscf.h5 $CurrDir/

>>> COPY $WorkDir/GMJ_Fock_MO.csv $CurrDir/1.42.GMJ_Fock_MO.csv

>>> COPY $WorkDir/GMJ_PT2_Fock_MO.csv $CurrDir/1.42.GMJ_PT2_Fock_MO.csv

&MOTRA
Frozen=0
LUMORB

>>> COPY $WorkDir/GMJ_one_int_indx.csv $CurrDir/1.42.GMJ_one_int_indx.csv

>>> COPY $WorkDir/GMJ_one_int.csv $CurrDir/1.42.GMJ_one_int.csv

>>> COPY $WorkDir/GMJ_two_int_indx.csv $CurrDir/1.42.GMJ_two_int_indx.csv

>>> COPY $WorkDir/GMJ_two_int.csv $CurrDir/1.42.GMJ_two_int.csv

&CASPT2
Frozen
0
MAXITER
50

>>> FOREACH i IN (B,E,F,G,H)

  >>> FOREACH j IN (P,M)

    >>> IF (-FILE GMJ_e2_${i}_${j}.csv)

      >>> COPY $WorkDir/GMJ_RHS_${i}_${j}.csv $CurrDir/GMJ_RHS_${i}_${j}.csv

      >>> COPY $WorkDir/GMJ_IVECW_${i}_${j}.csv $CurrDir/GMJ_IVECW_${i}_${j}.csv

      >>> COPY $WorkDir/GMJ_IVECX_${i}_${j}.csv $CurrDir/GMJ_IVECX_${i}_${j}.csv

      >>> COPY $WorkDir/GMJ_IVECC2_${i}_${j}.csv $CurrDir/GMJ_IVECC2_${i}_${j}.csv

      >>> COPY $WorkDir/GMJ_e2_${i}_${j}.csv $CurrDir/GMJ_e2_${i}_${j}.csv

    >>> END IF

  >>> END FOREACH

>>> END FOREACH

>>> FOREACH i IN (A,C,D)

  >>> IF (-FILE GMJ_e2_$i.csv)

    >>> COPY $WorkDir/GMJ_RHS_$i.csv $CurrDir/GMJ_RHS_$i.csv

    >>> COPY $WorkDir/GMJ_IVECW_$i.csv $CurrDir/GMJ_IVECW_$i.csv

    >>> COPY $WorkDir/GMJ_IVECX_$i.csv $CurrDir/GMJ_IVECX_$i.csv

    >>> COPY $WorkDir/GMJ_IVECC2_$i.csv $CurrDir/GMJ_IVECC2_$i.csv

    >>> COPY $WorkDir/GMJ_e2_$i.csv $CurrDir/GMJ_e2_$i.csv

  >>> END IF

>>> END FOREACH

-- ----------------------------------

--- Start Module: gateway at Tue Dec  3 13:22:37 2024 ---

()()()()()()()()()()()()()()()()()()()()()()()()()()()()()()()()()()()()()()()()()()()()()()()()()()

                                              &GATEWAY

                                   only a single process is used
                       available to each process: 16 GB of memory, 1 thread?
()()()()()()()()()()()()()()()()()()()()()()()()()()()()()()()()()()()()()()()()()()()()()()()()()()

 ###############################################################################
 ###############################################################################
 ###                                                                         ###
 ###                                                                         ###
 ###                                                                         ###
 ###    WARNING: EXPERT option is ON!                                        ###
 ###                                                                         ###
 ###                                                                         ###
 ###############################################################################
 ###############################################################################

++    Symmetry information:
      ---------------------

                    Character Table for C1 

                             E  
                    a        1  x, y, xy, Rz, z, xz, Ry, yz, Rx, I
--


++    Basis set information:
      ----------------------


      Basis set label: O.ANO-RCC...3S2P1D.

      Electronic valence basis set:
      ------------------
      Associated Effective Charge   8.000000 au
      Associated Actual Charge      8.000000 au
      Nuclear Model: Point charge

      Shell  nPrim  nBasis  Cartesian Spherical Contaminant
         s      14       3        X                  
         p       9       2        X                  
         d       4       1                 X         


      Basis set label: FE.ANO-RCC...5S4P2D1F.

      Electronic valence basis set:
      ------------------
      Associated Effective Charge  26.000000 au
      Associated Actual Charge     26.000000 au
      Nuclear Model: Point charge

      Shell  nPrim  nBasis  Cartesian Spherical Contaminant
         s      21       5        X                  
         p      15       4        X                  
         d      10       2                 X         
         f       6       1                 X         
--


++    Molecular structure info:
      -------------------------

                    ************************************************ 
                    **** Cartesian Coordinates / Bohr, Angstrom **** 
                    ************************************************ 

     Center  Label                x              y              z                     x              y              z
        1      O1               0.000000       0.000000       2.857493              0.000000       0.000000       1.512120
        2      FE2              0.000000       0.000000       0.166069              0.000000       0.000000       0.087880
--


            Nuclear Potential Energy             77.28252248 au

 ###############################################################################
 ###############################################################################
 ###                                                                         ###
 ###                                                                         ###
 ###    There were warnings during the execution                             ###
 ###    Please, check the output with care!                                  ###
 ###                                                                         ###
 ###                                                                         ###
 ###############################################################################
 ###############################################################################
--- Stop Module: gateway at Tue Dec  3 13:22:39 2024 /rc=_RC_ALL_IS_WELL_ ---
*** files: xmldump
    saved to directory /lustre/isaac/scratch/gjones39/condo_cluster/1.42
--- Module gateway spent 1 second ---

--- Start Module: seward at Tue Dec  3 13:22:39 2024 ---

()()()()()()()()()()()()()()()()()()()()()()()()()()()()()()()()()()()()()()()()()()()()()()()()()()

                                              &SEWARD

                                   only a single process is used
                       available to each process: 16 GB of memory, 1 thread?
()()()()()()()()()()()()()()()()()()()()()()()()()()()()()()()()()()()()()()()()()()()()()()()()()()

 ###############################################################################
 ###############################################################################
 ###                                                                         ###
 ###                                                                         ###
 ###                                                                         ###
 ###    WARNING: EXPERT option is ON!                                        ###
 ###                                                                         ###
 ###                                                                         ###
 ###############################################################################
 ###############################################################################
               SEWARD will generate:
                  Multipole Moment integrals up to order  2
                  Kinetic Energy integrals
                  Nuclear Attraction integrals (point charge)
                  One-Electron Hamiltonian integrals
                  Velocity integrals
                  Relativistic Douglas-Kroll-Hess integrals:
                    - Parametrization         : EXP
                    - DKH order of Hamiltonian: 2
                    - DKH order of Properties : 0
                         - multipole moment operators
                         - electric potential operators
                         - contact operators
                  Atomic mean-field integrals
                  Two-Electron Repulsion integrals

                   Integrals are discarded if absolute value <: 0.10E-13
                   Integral cutoff threshold is set to       <: 0.10E-15

            Nuclear Potential Energy             77.28252248 au


      Basis set specifications :
      Symmetry species         a  
      Basis functions           48


  Input file to MOLDEN was generated!

 ###############################################################################
 ###############################################################################
 ###                                                                         ###
 ###                                                                         ###
 ###    There were warnings during the execution                             ###
 ###    Please, check the output with care!                                  ###
 ###                                                                         ###
 ###                                                                         ###
 ###############################################################################
 ###############################################################################
Note: The following floating-point exceptions are signalling: IEEE_INVALID_FLAG IEEE_DIVIDE_BY_ZERO IEEE_UNDERFLOW_FLAG IEEE_DENORMAL
--- Stop Module: seward at Tue Dec  3 13:22:43 2024 /rc=_RC_ALL_IS_WELL_ ---
*** files: 1.42.GssOrb 1.42.guessorb.h5 1.42.guessorb.molden xmldump
    saved to directory /lustre/isaac/scratch/gjones39/condo_cluster/1.42
--- Module seward spent 4 seconds ---

*** symbolic link created: INPORB -> 1.42.GssOrb
--- Start Module: scf at Tue Dec  3 13:22:43 2024 ---

()()()()()()()()()()()()()()()()()()()()()()()()()()()()()()()()()()()()()()()()()()()()()()()()()()

                                                &SCF

                                   only a single process is used
                       available to each process: 16 GB of memory, 1 thread?
()()()()()()()()()()()()()()()()()()()()()()()()()()()()()()()()()()()()()()()()()()()()()()()()()()

 *** Possible bug in opening file
 *** isFreeUnit resets the unit number
++    Input section:
      --------------

      Header of the integral files:
      
       Integrals generated by seward 4.2.0  , Tue Dec  3 13:22:39 2024


      Cartesian coordinates in Angstrom:
      -----------------------------------------------------
      No.  Label        X            Y            Z        
      -----------------------------------------------------
       1   O1         0.00000000   0.00000000   1.51212000
       2   FE2        0.00000000   0.00000000   0.08788000
      -----------------------------------------------------
      Nuclear repulsion energy =   77.28252248
--

++    Orbital specifications:
      -----------------------

      Symmetry species               1
                                     a
      Frozen orbitals                0
      Start temperature = 0.500
      End temperature   = 0.010
      Temperature Factor= 0.460
      Deleted orbitals               0
      Total number of orbitals      48
      Number of basis functions     48
--

      Molecular charge                           2.000

++    Optimization specifications:
      ----------------------------

      SCF Algorithm: Conventional USCF
      D(i)-D(i-1) density differences are used
      Number of density matrices in core                5
      Maximum number of NDDO SCF iterations           400
      Maximum number of HF SCF iterations             400
      Threshold for SCF energy change            0.10E-08
      Threshold for density matrix               0.10E-03
      Threshold for Fock matrix                  0.15E-03
      Threshold for linear dependence            0.10E-08
      Threshold at which DIIS is turned on       0.15E+00
      Threshold at which QNR/C2DIIS is turned on 0.75E-01
      Threshold for Norm(delta) (QNR/C2DIIS)     0.20E-04
      DIIS extrapolation of the SCF procedure
      All orbitals punched on: UHFORB
--

      Input vectors read from INPORB
      Orbital file label: *Guess orbitals


++ Convergence information
                               UHF SCF        iterations: Energy and convergence statistics

Iter     Tot. SCF        One-elec.       Two-elec.     Energy      Max Dij or  Max Fij      DNorm      TNorm      AccCon     Time
         Energy          Energy          Energy        Change      Delta Norm                                                in Sec.

 The total and one-electron energies are shifted by a value of      1000. a.u.

   1  -342.581322805  -979.001555929   559.137710642   0.00E+00    0.20E+00*   0.82E+00*    0.78E+01   0.19E+03   None         0.
   2  -343.418379282  -979.490181354   558.789279590  -0.84E+00*   0.28E+00*   0.29E+00*    0.17E+01   0.19E+03   EDIIS        0.
   3  -342.736212916 -1011.364616858   591.345881460   0.68E+00*   0.86E-01*   0.24E+00*    0.20E+01   0.20E+03   EDIIS        0.
   4  -344.593931449  -978.212344287   556.335890356  -0.19E+01*   0.61E+00*   0.35E+00*    0.19E+01   0.19E+03   EDIIS        0.
   5  -344.453072665 -1004.529190592   582.793595445   0.14E+00*   0.12E+00*   0.20E+00*    0.20E+01   0.20E+03   EDIIS        0.
   6  -345.149322263  -986.382922354   563.951077609  -0.70E+00*   0.20E+00*   0.12E+00*    0.85E+00   0.19E+03   EDIIS        0.
   7  -345.141767123  -992.499861890   570.075572285   0.76E-02*   0.90E-01*   0.45E-01*    0.54E+00   0.20E+03   EDIIS        0.

       Fermi aufbau procedure completed!
      nOcc(alpha)=   18
      nOcc(beta) =   14

   8  -345.181446668  -988.481027492   566.017058343  -0.40E-01*   0.11E+00*   0.47E-01*    0.24E+00   0.20E+03   EDIIS        0.
   9  -345.193190619  -989.330143414   566.854430314  -0.12E-01*   0.85E-01*   0.32E-01*    0.25E+00   0.20E+03   EDIIS        0.
  10  -345.202633390  -988.144004920   565.658849048  -0.94E-02*   0.91E-01*   0.39E-01*    0.24E+00   0.20E+03   EDIIS        0.
  11  -345.208760296  -989.628019265   567.136736487  -0.61E-02*   0.74E-01*   0.31E-01*    0.23E+00   0.20E+03   EDIIS        0.
  12  -345.212069484  -987.802727659   565.308135693  -0.33E-02*   0.46E-01*   0.16E-01*    0.21E+00   0.20E+03   c2DIIS       0.
  13  -345.215794641  -988.852257927   566.353940805  -0.37E-02*   0.64E-01*   0.13E-01*    0.13E+00   0.20E+03   QNRc2DIIS    0.
  14  -345.217292424  -988.642285004   566.142470099  -0.15E-02*   0.16E+00*   0.11E-01*    0.91E-01   0.20E+03   QNRc2DIIS    0.
  15  -345.218200144  -988.920450958   566.419728333  -0.91E-03*   0.42E-01*   0.81E-02*    0.24E+00   0.20E+03   QNRc2DIIS    0.
  16  -345.218544920  -988.705387966   566.204320564  -0.34E-03*   0.14E-01*   0.12E-02*    0.64E-01   0.20E+03   QNRc2DIIS    0.
  17  -345.218563677  -988.669263916   566.168177757  -0.19E-04*   0.33E-02*   0.65E-03*    0.17E-01   0.20E+03   QNRc2DIIS    0.
  18  -345.218566308  -988.668788874   566.167700084  -0.26E-05*   0.65E-02*   0.36E-03*    0.44E-02   0.20E+03   QNRc2DIIS    0.
  19  -345.218568778  -988.665707542   566.164616282  -0.25E-05*   0.53E-03*   0.11E-03     0.83E-02   0.20E+03   QNRc2DIIS    0.
  20  -345.218568825  -988.664000385   566.162909078  -0.47E-07*   0.24E-03*   0.48E-04     0.71E-03   0.20E+03   QNRc2DIIS    0.
  21  -345.218568834  -988.664127721   566.163036405  -0.90E-08*   0.30E-04*   0.84E-05     0.34E-03   0.20E+03   QNRc2DIIS    0.
  22  -345.218568834  -988.663840481   566.162749165  -0.38E-09    0.14E-04    0.28E-05     0.43E-04   0.20E+03   QNRc2DIIS    0.

       Convergence after 22 Macro Iterations
--

 *****************************************************************************************************************************
 *                                                                                                                           *
 *                                             SCF/KS-DFT Program, Final results                                             *
 *                                                                                                                           *
 *                                                                                                                           *
 *                                                                                                                           *
 *                                                       Final Results                                                       *
 *                                                                                                                           *
 *****************************************************************************************************************************

::    Total SCF energy                              -1345.2185688342
      One-electron energy                           -1988.6638404813
      Two-electron energy                             566.1627491653
      Nuclear repulsion energy                         77.2825224817
      Kinetic energy (interpolated)                  1400.8552691897
      Virial theorem                                    0.9602837627
      Total spin, S(S+1)                                6.7196564039
      Total spin, S                                     2.1400106825
      Max non-diagonal density matrix element           0.0000047646
      Max non-diagonal Fock matrix element              0.0000015532


      All orbitals with orbital energies smaller than  E(LUMO)+0.5 are printed

++    Molecular orbitals:
      -------------------

      Title: UHF orbitals (alpha)

      Molecular orbitals for symmetry species 1: a  

          Orbital            1         2         3         4         5         6         7         8         9        10    
          Energy         -264.4522  -33.3065  -28.3779  -28.3779  -28.3690  -21.2068   -5.2600   -3.8131   -3.8131   -3.8109
          Occ. No.          1.0000    1.0000    1.0000    1.0000    1.0000    1.0000    1.0000    1.0000    1.0000    1.0000

        1 O1     1s         0.0000   -0.0000   -0.0000    0.0000    0.0002    1.0000   -0.0016   -0.0000    0.0000   -0.0056
        2 O1     2s         0.0000   -0.0002    0.0000   -0.0000    0.0012   -0.0002    0.0074    0.0000   -0.0000    0.0311
        3 O1     3s         0.0000   -0.0002    0.0000    0.0000    0.0007   -0.0012   -0.0015   -0.0000    0.0000   -0.0067
        4 O1     2px        0.0000   -0.0000   -0.0000   -0.0000    0.0000    0.0000   -0.0000    0.0055    0.0027   -0.0000
        5 O1     3px       -0.0000   -0.0000   -0.0000   -0.0001   -0.0000   -0.0000   -0.0000    0.0015    0.0008    0.0000
        6 O1     2py       -0.0000    0.0000   -0.0000    0.0000   -0.0000    0.0000   -0.0000    0.0027   -0.0055    0.0000
        7 O1     3py       -0.0000    0.0000   -0.0001    0.0000   -0.0000    0.0000   -0.0000    0.0008   -0.0015    0.0000
        8 O1     2pz       -0.0000    0.0002   -0.0000    0.0000   -0.0007   -0.0001   -0.0048   -0.0000    0.0000   -0.0183
        9 O1     3pz       -0.0000    0.0001    0.0000    0.0000   -0.0005    0.0006    0.0026    0.0000   -0.0000    0.0109
       10 O1     3d2-      -0.0000    0.0000   -0.0000    0.0000   -0.0000   -0.0000   -0.0000    0.0000    0.0000   -0.0000
       11 O1     3d1-       0.0000   -0.0000   -0.0001    0.0000    0.0000   -0.0000   -0.0000   -0.0006    0.0012    0.0000
       12 O1     3d0        0.0000   -0.0002   -0.0000    0.0000    0.0002   -0.0011    0.0006    0.0000   -0.0000    0.0038
       13 O1     3d1+       0.0000    0.0000   -0.0000   -0.0001    0.0000    0.0000    0.0000   -0.0012   -0.0006    0.0000
       14 O1     3d2+      -0.0000    0.0000   -0.0000    0.0000    0.0000   -0.0000   -0.0000    0.0000    0.0000    0.0000
       15 FE2    1s         1.0000   -0.0000   -0.0000    0.0000   -0.0000    0.0000   -0.0000    0.0000    0.0000   -0.0000
       16 FE2    2s         0.0000    1.0000    0.0000    0.0000   -0.0010    0.0001   -0.0034   -0.0000    0.0000   -0.0004
       17 FE2    3s        -0.0000    0.0035   -0.0000    0.0000   -0.0003    0.0005    0.9991   -0.0000    0.0000   -0.0178
       18 FE2    4s        -0.0000   -0.0001   -0.0000   -0.0000   -0.0011    0.0005   -0.0030    0.0000    0.0000    0.0001
       19 FE2    5s         0.0000    0.0002    0.0000    0.0000    0.0005   -0.0003    0.0037    0.0000   -0.0000    0.0006
       20 FE2    2px        0.0000   -0.0000    0.1943    0.9809    0.0000   -0.0000    0.0000   -0.0029   -0.0014   -0.0000
       21 FE2    3px       -0.0000    0.0000    0.0006    0.0031    0.0000    0.0000   -0.0000    0.8971    0.4397    0.0000
       22 FE2    4px        0.0000   -0.0000   -0.0001   -0.0005    0.0000    0.0000    0.0000   -0.0156   -0.0077   -0.0000
       23 FE2    5px        0.0000    0.0000    0.0003    0.0013    0.0000    0.0000   -0.0000    0.0098    0.0048    0.0000
       24 FE2    2py        0.0000   -0.0000    0.9809   -0.1943   -0.0000    0.0000   -0.0000   -0.0014    0.0029    0.0000
       25 FE2    3py        0.0000   -0.0000    0.0031   -0.0006   -0.0000   -0.0000   -0.0000    0.4397   -0.8971   -0.0000
       26 FE2    4py        0.0000   -0.0000   -0.0005    0.0001    0.0000   -0.0000    0.0000   -0.0077    0.0156    0.0000
       27 FE2    5py        0.0000   -0.0000    0.0013   -0.0003    0.0000    0.0000    0.0000    0.0048   -0.0098   -0.0000
       28 FE2    2pz       -0.0000    0.0008    0.0000   -0.0000    1.0000    0.0000   -0.0003   -0.0000    0.0000   -0.0034
       29 FE2    3pz       -0.0000    0.0003    0.0000   -0.0000    0.0027    0.0003    0.0131    0.0000   -0.0000    0.9926
       30 FE2    4pz       -0.0000    0.0000   -0.0000    0.0000   -0.0013    0.0002   -0.0024   -0.0000    0.0000   -0.0162
       31 FE2    5pz        0.0000    0.0000    0.0000   -0.0000    0.0015   -0.0002    0.0019    0.0000   -0.0000    0.0098
       32 FE2    3d2-      -0.0000    0.0000   -0.0000   -0.0000   -0.0000    0.0000    0.0000   -0.0000   -0.0000   -0.0000
       33 FE2    4d2-      -0.0000   -0.0000   -0.0000    0.0000   -0.0000    0.0000   -0.0000    0.0000    0.0000   -0.0000
       34 FE2    3d1-       0.0000   -0.0000    0.0001   -0.0000   -0.0000   -0.0000    0.0000    0.0017   -0.0034   -0.0000
       35 FE2    4d1-       0.0000   -0.0000   -0.0001    0.0000    0.0000   -0.0000   -0.0000   -0.0023    0.0047    0.0000
       36 FE2    3d0       -0.0000   -0.0001   -0.0000   -0.0000   -0.0001    0.0001   -0.0015    0.0000   -0.0000    0.0088
       37 FE2    4d0       -0.0000    0.0001   -0.0000    0.0000   -0.0004   -0.0001    0.0000   -0.0000    0.0000   -0.0036
       38 FE2    3d1+      -0.0000    0.0000    0.0000    0.0001   -0.0000    0.0000   -0.0000    0.0034    0.0017   -0.0000
       39 FE2    4d1+       0.0000   -0.0000   -0.0000   -0.0001    0.0000    0.0000    0.0000   -0.0047   -0.0023    0.0000
       40 FE2    3d2+      -0.0000   -0.0000    0.0000    0.0000    0.0000   -0.0000   -0.0000    0.0000   -0.0000    0.0000
       41 FE2    4d2+       0.0000    0.0000   -0.0000   -0.0000    0.0000    0.0000    0.0000   -0.0000    0.0000   -0.0000
       42 FE2    4f3-      -0.0000    0.0000   -0.0000    0.0000    0.0000    0.0000   -0.0000    0.0000    0.0000    0.0000
       43 FE2    4f2-      -0.0000   -0.0000   -0.0000   -0.0000   -0.0000    0.0000   -0.0000   -0.0000   -0.0000    0.0000
       44 FE2    4f1-      -0.0000    0.0000   -0.0000    0.0000    0.0000   -0.0000   -0.0000   -0.0004    0.0009    0.0000
       45 FE2    4f0        0.0000    0.0000   -0.0000   -0.0000   -0.0002    0.0000    0.0010    0.0000   -0.0000   -0.0001
       46 FE2    4f1+      -0.0000   -0.0000   -0.0000   -0.0000   -0.0000   -0.0000   -0.0000   -0.0009   -0.0004    0.0000
       47 FE2    4f2+      -0.0000    0.0000    0.0000    0.0000   -0.0000   -0.0000    0.0000    0.0000   -0.0000   -0.0000
       48 FE2    4f3+       0.0000   -0.0000   -0.0000   -0.0000   -0.0000   -0.0000    0.0000   -0.0000    0.0000    0.0000

          Orbital           11        12        13        14        15        16        17        18        19        20    
          Energy           -1.9075   -1.5303   -1.5303   -1.5048   -1.5048   -1.4295   -1.1466   -1.1466   -0.5869   -0.4457
          Occ. No.          1.0000    1.0000    1.0000    1.0000    1.0000    1.0000    1.0000    1.0000    0.0000    0.0000

        1 O1     1s        -0.0111   -0.0000    0.0000   -0.0000    0.0000   -0.0279    0.0000   -0.0000    0.0234    0.0052
        2 O1     2s         0.8702   -0.0000    0.0000   -0.0000    0.0000   -0.5212    0.0000    0.0000    0.2929    0.0810
        3 O1     3s        -0.0135   -0.0000    0.0000   -0.0000    0.0000   -0.0613    0.0000    0.0000    0.0487    0.0155
        4 O1     2px       -0.0000    0.2012    0.0489   -0.0000    0.0000   -0.0000   -0.9564    0.0056   -0.0000   -0.0000
        5 O1     3px       -0.0000   -0.0551   -0.0134    0.0000   -0.0000    0.0000    0.0263   -0.0002    0.0000   -0.0000
        6 O1     2py        0.0000    0.0489   -0.2012   -0.0000   -0.0000    0.0000   -0.0056   -0.9564    0.0000    0.0000
        7 O1     3py        0.0000   -0.0134    0.0551    0.0000    0.0000   -0.0000    0.0002    0.0263    0.0000    0.0000
        8 O1     2pz       -0.1668   -0.0000    0.0000   -0.0000    0.0000   -0.0781   -0.0000    0.0000    0.3739    0.8562
        9 O1     3pz       -0.0080    0.0000   -0.0000    0.0000   -0.0000    0.0478   -0.0000   -0.0000    0.0315    0.1880
       10 O1     3d2-      -0.0000    0.0000    0.0000   -0.0002    0.0015    0.0000    0.0000    0.0000   -0.0000   -0.0000
       11 O1     3d1-      -0.0000   -0.0039    0.0159    0.0000    0.0000    0.0000    0.0002    0.0371   -0.0000   -0.0000
       12 O1     3d0       -0.0018    0.0000   -0.0000    0.0000   -0.0000    0.0307    0.0000   -0.0000   -0.0194   -0.0293
       13 O1     3d1+       0.0000   -0.0159   -0.0039    0.0000   -0.0000   -0.0000    0.0371   -0.0002    0.0000    0.0000
       14 O1     3d2+       0.0000    0.0000    0.0000    0.0015    0.0002   -0.0000   -0.0000   -0.0000    0.0000    0.0000
       15 FE2    1s        -0.0027    0.0000   -0.0000    0.0000   -0.0000    0.0014   -0.0000    0.0000    0.0016    0.0067
       16 FE2    2s        -0.0201    0.0000   -0.0000    0.0000   -0.0000    0.0103   -0.0000    0.0000    0.0108    0.0477
       17 FE2    3s        -0.1221    0.0000   -0.0000    0.0000   -0.0000    0.0576   -0.0000    0.0000    0.0442    0.2170
       18 FE2    4s         0.0060    0.0000    0.0000   -0.0000   -0.0000    0.0031   -0.0000   -0.0000   -0.8285    0.4863
       19 FE2    5s        -0.0067    0.0000   -0.0000    0.0000   -0.0000    0.0097   -0.0000    0.0000    0.2407   -0.0072
       20 FE2    2px        0.0000   -0.0005   -0.0001   -0.0000   -0.0000    0.0000    0.0031   -0.0000   -0.0000    0.0000
       21 FE2    3px        0.0000   -0.0150   -0.0036    0.0000    0.0000    0.0000    0.0624   -0.0004    0.0000    0.0000
       22 FE2    4px        0.0000    0.0138    0.0034   -0.0000    0.0000    0.0000   -0.0640    0.0004   -0.0000   -0.0000
       23 FE2    5px        0.0000    0.0069    0.0017   -0.0000    0.0000   -0.0000    0.0196   -0.0001   -0.0000   -0.0000
       24 FE2    2py       -0.0000   -0.0001    0.0005    0.0000    0.0000   -0.0000    0.0000    0.0031   -0.0000   -0.0000
       25 FE2    3py       -0.0000   -0.0036    0.0150   -0.0000    0.0000   -0.0000    0.0004    0.0624   -0.0000   -0.0000
       26 FE2    4py       -0.0000    0.0034   -0.0138    0.0000   -0.0000   -0.0000   -0.0004   -0.0640    0.0000    0.0000
       27 FE2    5py       -0.0000    0.0017   -0.0069   -0.0000   -0.0000    0.0000    0.0001    0.0196   -0.0000    0.0000
       28 FE2    2pz       -0.0061    0.0000   -0.0000    0.0000    0.0000    0.0022   -0.0000    0.0000    0.0022    0.0093
       29 FE2    3pz       -0.1614    0.0000    0.0000    0.0000   -0.0000    0.0452   -0.0000    0.0000    0.0301    0.1402
       30 FE2    4pz        0.0201    0.0000    0.0000    0.0000   -0.0000   -0.0006   -0.0000   -0.0000    0.1935   -0.4893
       31 FE2    5pz       -0.0079    0.0000   -0.0000    0.0000   -0.0000    0.0080   -0.0000    0.0000    0.0106   -0.0136
       32 FE2    3d2-      -0.0000   -0.0000   -0.0000   -0.1610    0.9811    0.0000    0.0000   -0.0000    0.0000   -0.0000
       33 FE2    4d2-      -0.0000    0.0000    0.0000    0.0172   -0.1049   -0.0000   -0.0000    0.0000    0.0000    0.0000
       34 FE2    3d1-       0.0000    0.2232   -0.9179   -0.0000   -0.0000   -0.0000    0.0020    0.3464   -0.0000   -0.0000
       35 FE2    4d1-      -0.0000   -0.0206    0.0845    0.0000    0.0000    0.0000   -0.0003   -0.0580    0.0000    0.0000
       36 FE2    3d0        0.3254    0.0000   -0.0000    0.0000   -0.0000    0.9207   -0.0000    0.0000    0.0453    0.1956
       37 FE2    4d0       -0.0270   -0.0000    0.0000   -0.0000    0.0000   -0.0795   -0.0000   -0.0000    0.0157    0.0276
       38 FE2    3d1+      -0.0000    0.9179    0.2232   -0.0000    0.0000    0.0000    0.3464   -0.0020    0.0000    0.0000
       39 FE2    4d1+       0.0000   -0.0845   -0.0206    0.0000   -0.0000   -0.0000   -0.0580    0.0003   -0.0000   -0.0000
       40 FE2    3d2+       0.0000    0.0000   -0.0000    0.9811    0.1610   -0.0000    0.0000   -0.0000   -0.0000   -0.0000
       41 FE2    4d2+      -0.0000   -0.0000    0.0000   -0.1049   -0.0172    0.0000   -0.0000    0.0000    0.0000   -0.0000
       42 FE2    4f3-       0.0000   -0.0000   -0.0000   -0.0000   -0.0000   -0.0000   -0.0000   -0.0000    0.0000    0.0000
       43 FE2    4f2-      -0.0000   -0.0000   -0.0000    0.0001   -0.0003    0.0000   -0.0000    0.0000   -0.0000   -0.0000
       44 FE2    4f1-       0.0000    0.0012   -0.0050   -0.0000   -0.0000   -0.0000   -0.0001   -0.0142    0.0000    0.0000
       45 FE2    4f0        0.0115    0.0000    0.0000   -0.0000    0.0000    0.0032   -0.0000   -0.0000   -0.0045   -0.0110
       46 FE2    4f1+      -0.0000    0.0050    0.0012   -0.0000    0.0000    0.0000   -0.0142    0.0001   -0.0000   -0.0000
       47 FE2    4f2+       0.0000    0.0000   -0.0000   -0.0003   -0.0001    0.0000   -0.0000    0.0000    0.0000   -0.0000
       48 FE2    4f3+       0.0000    0.0000   -0.0000   -0.0000    0.0000   -0.0000    0.0000    0.0000   -0.0000   -0.0000

          Orbital           21        22        23        24    
          Energy           -0.3790   -0.3790   -0.2535   -0.1813
          Occ. No.          0.0000    0.0000    0.0000    0.0000

        1 O1     1s        -0.0000    0.0000   -0.0869   -0.1337
        2 O1     2s        -0.0000    0.0000   -0.6769   -0.9627
        3 O1     3s        -0.0000    0.0000   -0.1867   -0.3297
        4 O1     2px       -0.3288   -0.1639   -0.0000   -0.0000
        5 O1     3px       -0.1053   -0.0525   -0.0000   -0.0000
        6 O1     2py       -0.1639    0.3288    0.0000    0.0000
        7 O1     3py       -0.0525    0.1053   -0.0000    0.0000
        8 O1     2pz       -0.0000    0.0000    0.1179    0.7104
        9 O1     3pz       -0.0000    0.0000    0.0449    0.4432
       10 O1     3d2-       0.0000    0.0000   -0.0000   -0.0000
       11 O1     3d1-       0.0013   -0.0027    0.0000   -0.0000
       12 O1     3d0        0.0000   -0.0000   -0.0027   -0.0296
       13 O1     3d1+       0.0027    0.0013    0.0000   -0.0000
       14 O1     3d2+      -0.0000    0.0000   -0.0000    0.0000
       15 FE2    1s        -0.0000    0.0000    0.0038    0.0132
       16 FE2    2s        -0.0000    0.0000    0.0278    0.0950
       17 FE2    3s        -0.0000    0.0000    0.1410    0.4383
       18 FE2    4s        -0.0000    0.0000    0.7259    0.7663
       19 FE2    5s        -0.0000    0.0000    0.5203   -1.0386
       20 FE2    2px        0.0021    0.0010    0.0000    0.0000
       21 FE2    3px        0.0453    0.0226    0.0000    0.0000
       22 FE2    4px        0.9911    0.4941    0.0000    0.0000
       23 FE2    5px        0.0681    0.0340    0.0000    0.0000
       24 FE2    2py        0.0010   -0.0021   -0.0000   -0.0000
       25 FE2    3py        0.0226   -0.0453   -0.0000   -0.0000
       26 FE2    4py        0.4941   -0.9911    0.0000   -0.0000
       27 FE2    5py        0.0340   -0.0681    0.0000   -0.0000
       28 FE2    2pz       -0.0000    0.0000    0.0070    0.0184
       29 FE2    3pz       -0.0000    0.0000    0.1311    0.2906
       30 FE2    4pz        0.0000   -0.0000    0.9014    0.8912
       31 FE2    5pz        0.0000   -0.0000    0.0838    0.0941
       32 FE2    3d2-       0.0000   -0.0000    0.0000   -0.0000
       33 FE2    4d2-      -0.0000    0.0000   -0.0000   -0.0000
       34 FE2    3d1-       0.0360   -0.0722   -0.0000   -0.0000
       35 FE2    4d1-      -0.0207    0.0415   -0.0000    0.0000
       36 FE2    3d0       -0.0000    0.0000    0.1453    0.2555
       37 FE2    4d0       -0.0000    0.0000   -0.0694   -0.0046
       38 FE2    3d1+       0.0722    0.0360    0.0000    0.0000
       39 FE2    4d1+      -0.0415   -0.0207   -0.0000   -0.0000
       40 FE2    3d2+      -0.0000    0.0000    0.0000   -0.0000
       41 FE2    4d2+       0.0000    0.0000   -0.0000   -0.0000
       42 FE2    4f3-       0.0000    0.0000   -0.0000    0.0000
       43 FE2    4f2-      -0.0000   -0.0000   -0.0000   -0.0000
       44 FE2    4f1-      -0.0024    0.0048   -0.0000    0.0000
       45 FE2    4f0        0.0000   -0.0000   -0.0062   -0.0053
       46 FE2    4f1+      -0.0048   -0.0024   -0.0000    0.0000
       47 FE2    4f2+       0.0000   -0.0000   -0.0000    0.0000
       48 FE2    4f3+      -0.0000   -0.0000    0.0000   -0.0000
--


  Input file to MOLDEN was generated!


++    Static properties:
      ------------------


      LoProp Charges per center


                   O1       FE2   
      Nuclear      8.0000  26.0000
      Electronic  -8.2244 -23.7756

      Total       -0.2244   2.2244
--


      All orbitals with orbital energies smaller than  E(LUMO)+0.5 are printed

++    Molecular orbitals:
      -------------------

      Title: UHF orbitals (beta)

      Molecular orbitals for symmetry species 1: a  

          Orbital            1         2         3         4         5         6         7         8         9        10    
          Energy         -264.4498  -33.1580  -28.2302  -28.2245  -28.2245  -21.2129   -4.8646   -3.3786   -3.3185   -3.3185
          Occ. No.          1.0000    1.0000    1.0000    1.0000    1.0000    1.0000    1.0000    1.0000    1.0000    1.0000

        1 O1     1s         0.0000    0.0000   -0.0001   -0.0000    0.0000    1.0000   -0.0022   -0.0073    0.0000   -0.0000
        2 O1     2s         0.0000    0.0001   -0.0007    0.0000    0.0000    0.0007    0.0119    0.0670   -0.0000    0.0000
        3 O1     3s         0.0000    0.0001   -0.0004    0.0000    0.0000   -0.0009   -0.0010   -0.0059   -0.0000   -0.0000
        4 O1     2px        0.0000   -0.0000    0.0000   -0.0000    0.0001    0.0000   -0.0000   -0.0000    0.0136    0.0034
        5 O1     3px       -0.0000   -0.0000   -0.0000   -0.0000    0.0001   -0.0000   -0.0000    0.0000   -0.0017   -0.0004
        6 O1     2py       -0.0000    0.0000   -0.0000    0.0001    0.0000    0.0000   -0.0000    0.0000   -0.0034    0.0136
        7 O1     3py       -0.0000    0.0000   -0.0000    0.0001    0.0000   -0.0000   -0.0000    0.0000    0.0004   -0.0017
        8 O1     2pz       -0.0000   -0.0001    0.0004   -0.0000    0.0000   -0.0007   -0.0126   -0.0556    0.0000   -0.0000
        9 O1     3pz       -0.0000   -0.0001    0.0005    0.0000    0.0000    0.0000    0.0016    0.0116    0.0000    0.0000
       10 O1     3d2-      -0.0000    0.0000   -0.0000   -0.0000    0.0000    0.0000   -0.0000    0.0000    0.0000    0.0000
       11 O1     3d1-       0.0000   -0.0000    0.0000    0.0000    0.0000    0.0000    0.0000    0.0000    0.0009   -0.0037
       12 O1     3d0        0.0000    0.0001   -0.0001   -0.0000    0.0000    0.0009    0.0041    0.0137   -0.0000    0.0000
       13 O1     3d1+       0.0000    0.0000    0.0000   -0.0000    0.0000   -0.0000    0.0000    0.0000   -0.0037   -0.0009
       14 O1     3d2+      -0.0000    0.0000    0.0000   -0.0000    0.0000   -0.0000   -0.0000   -0.0000    0.0000    0.0000
       15 FE2    1s         1.0000    0.0000    0.0000   -0.0000   -0.0000   -0.0000   -0.0001   -0.0004    0.0000   -0.0000
       16 FE2    2s        -0.0000    1.0000   -0.0008    0.0000    0.0000   -0.0001    0.0001   -0.0026    0.0000   -0.0000
       17 FE2    3s        -0.0000   -0.0009    0.0000   -0.0000    0.0000   -0.0003    0.9960   -0.0193   -0.0000    0.0000
       18 FE2    4s        -0.0000    0.0001    0.0008   -0.0000   -0.0000   -0.0001    0.0000    0.0017    0.0000    0.0000
       19 FE2    5s         0.0000   -0.0002   -0.0004   -0.0000    0.0000    0.0001    0.0011    0.0001   -0.0000    0.0000
       20 FE2    2px        0.0000   -0.0000    0.0000   -0.0037    1.0000   -0.0000    0.0000    0.0000    0.0026    0.0007
       21 FE2    3px       -0.0000    0.0000    0.0000    0.0000   -0.0028   -0.0000    0.0000    0.0000    0.9686    0.2434
       22 FE2    4px        0.0000   -0.0000    0.0000   -0.0000    0.0003    0.0000    0.0000   -0.0000   -0.0060   -0.0015
       23 FE2    5px        0.0000    0.0000    0.0000    0.0000   -0.0010    0.0000    0.0000   -0.0000   -0.0002   -0.0001
       24 FE2    2py        0.0000   -0.0000   -0.0000    1.0000    0.0037    0.0000    0.0000   -0.0000   -0.0007    0.0026
       25 FE2    3py        0.0000   -0.0000    0.0000   -0.0028   -0.0000    0.0000   -0.0000   -0.0000   -0.2434    0.9686
       26 FE2    4py        0.0000   -0.0000    0.0000    0.0003    0.0000    0.0000    0.0000   -0.0000    0.0015   -0.0060
       27 FE2    5py        0.0000   -0.0000    0.0000   -0.0010   -0.0000   -0.0000    0.0000   -0.0000    0.0001   -0.0002
       28 FE2    2pz        0.0000    0.0009    1.0000    0.0000   -0.0000   -0.0001    0.0001    0.0015   -0.0000    0.0000
       29 FE2    3pz        0.0000   -0.0003   -0.0024   -0.0000   -0.0000   -0.0002   -0.0020    0.9771   -0.0000    0.0000
       30 FE2    4pz       -0.0000   -0.0000    0.0009   -0.0000   -0.0000   -0.0000    0.0002   -0.0012    0.0000    0.0000
       31 FE2    5pz        0.0000   -0.0000   -0.0012   -0.0000   -0.0000    0.0002    0.0005   -0.0033    0.0000   -0.0000
       32 FE2    3d2-      -0.0000   -0.0000   -0.0000   -0.0000   -0.0000   -0.0000   -0.0000   -0.0000   -0.0000   -0.0000
       33 FE2    4d2-      -0.0000    0.0000   -0.0000   -0.0000    0.0000   -0.0000   -0.0000   -0.0000    0.0000   -0.0000
       34 FE2    3d1-       0.0000   -0.0000   -0.0000    0.0001    0.0000    0.0000   -0.0000   -0.0000    0.0013   -0.0051
       35 FE2    4d1-       0.0000    0.0000    0.0000   -0.0001   -0.0000    0.0000    0.0000    0.0000   -0.0003    0.0013
       36 FE2    3d0       -0.0000    0.0001    0.0003   -0.0000   -0.0000    0.0000    0.0004   -0.0010    0.0000   -0.0000
       37 FE2    4d0       -0.0000   -0.0000    0.0001   -0.0000   -0.0000   -0.0001    0.0022    0.0045   -0.0000    0.0000
       38 FE2    3d1+      -0.0000    0.0000    0.0000   -0.0000    0.0001   -0.0000    0.0000    0.0000   -0.0051   -0.0013
       39 FE2    4d1+       0.0000   -0.0000    0.0000    0.0000   -0.0001    0.0000    0.0000   -0.0000    0.0013    0.0003
       40 FE2    3d2+      -0.0000    0.0000   -0.0000    0.0000    0.0000    0.0000    0.0000   -0.0000   -0.0000    0.0000
       41 FE2    4d2+       0.0000    0.0000    0.0000   -0.0000   -0.0000    0.0000    0.0000    0.0000    0.0000   -0.0000
       42 FE2    4f3-      -0.0000    0.0000    0.0000   -0.0000    0.0000    0.0000    0.0000    0.0000    0.0000   -0.0000
       43 FE2    4f2-      -0.0000    0.0000   -0.0000   -0.0000   -0.0000   -0.0000    0.0000   -0.0000   -0.0000   -0.0000
       44 FE2    4f1-      -0.0000    0.0000    0.0000    0.0001    0.0000    0.0000   -0.0000    0.0000   -0.0006    0.0023
       45 FE2    4f0        0.0000   -0.0000    0.0000    0.0000   -0.0000   -0.0000    0.0010    0.0021   -0.0000    0.0000
       46 FE2    4f1+      -0.0000   -0.0000   -0.0000   -0.0000    0.0001   -0.0000    0.0000   -0.0000    0.0023    0.0006
       47 FE2    4f2+      -0.0000    0.0000    0.0000    0.0000    0.0000    0.0000   -0.0000    0.0000   -0.0000    0.0000
       48 FE2    4f3+       0.0000   -0.0000   -0.0000   -0.0000   -0.0000   -0.0000    0.0000    0.0000   -0.0000   -0.0000

          Orbital           11        12        13        14        15        16        17        18        19        20    
          Energy           -1.9075   -1.2866   -1.1382   -1.1382   -0.5502   -0.4961   -0.4961   -0.4883   -0.4883   -0.4465
          Occ. No.          1.0000    1.0000    1.0000    1.0000    0.0000    0.0000    0.0000    0.0000    0.0000    0.0000

        1 O1     1s         0.0074   -0.0207   -0.0000    0.0000    0.0117    0.0000   -0.0000    0.0000   -0.0000    0.0000
        2 O1     2s        -0.9437   -0.3054   -0.0000    0.0000    0.1306    0.0000   -0.0000    0.0000   -0.0000   -0.0508
        3 O1     3s         0.0056   -0.0268   -0.0000    0.0000    0.0187    0.0000    0.0000    0.0000   -0.0000   -0.0016
        4 O1     2px        0.0000    0.0000    0.7027    0.2778    0.0000   -0.4840   -0.1900   -0.0000    0.0000   -0.0000
        5 O1     3px        0.0000   -0.0000   -0.0422   -0.0167    0.0000   -0.0883   -0.0346   -0.0000    0.0000   -0.0000
        6 O1     2py       -0.0000   -0.0000    0.2778   -0.7027   -0.0000    0.1900   -0.4840    0.0000    0.0000    0.0000
        7 O1     3py       -0.0000    0.0000   -0.0167    0.0422   -0.0000    0.0346   -0.0883    0.0000    0.0000   -0.0000
        8 O1     2pz        0.1464   -0.8833   -0.0000    0.0000    0.0703   -0.0000    0.0000   -0.0000    0.0000    0.3676
        9 O1     3pz        0.0274    0.0724    0.0000   -0.0000    0.0117   -0.0000    0.0000   -0.0000    0.0000    0.0839
       10 O1     3d2-      -0.0000   -0.0000    0.0000    0.0000    0.0000   -0.0000   -0.0000    0.0140   -0.0002   -0.0000
       11 O1     3d1-      -0.0000    0.0000   -0.0179    0.0454    0.0000    0.0040   -0.0103    0.0000    0.0000    0.0000
       12 O1     3d0       -0.0487    0.0286    0.0000   -0.0000    0.0187   -0.0000   -0.0000    0.0000    0.0000    0.0181
       13 O1     3d1+       0.0000   -0.0000   -0.0454   -0.0179   -0.0000   -0.0103   -0.0040   -0.0000    0.0000   -0.0000
       14 O1     3d2+       0.0000    0.0000   -0.0000    0.0000    0.0000   -0.0000    0.0000    0.0002    0.0140   -0.0000
       15 FE2    1s         0.0034   -0.0033   -0.0000    0.0000   -0.0000   -0.0000    0.0000   -0.0000    0.0000    0.0029
       16 FE2    2s         0.0253   -0.0245   -0.0000    0.0000   -0.0001   -0.0000    0.0000   -0.0000    0.0000    0.0209
       17 FE2    3s         0.1534   -0.1277   -0.0000    0.0000   -0.0028   -0.0000    0.0000   -0.0000    0.0000    0.0994
       18 FE2    4s         0.0010    0.0585    0.0000   -0.0000   -0.8781   -0.0000    0.0000   -0.0000    0.0000    0.3439
       19 FE2    5s         0.0037   -0.0219    0.0000    0.0000    0.1849   -0.0000   -0.0000    0.0000   -0.0000   -0.0248
       20 FE2    2px       -0.0000   -0.0000   -0.0026   -0.0010   -0.0000    0.0022    0.0009    0.0000   -0.0000    0.0000
       21 FE2    3px        0.0000   -0.0000   -0.0562   -0.0222   -0.0000    0.0460    0.0180    0.0000   -0.0000    0.0000
       22 FE2    4px       -0.0000    0.0000    0.0786    0.0311   -0.0000   -0.2664   -0.1045   -0.0000    0.0000   -0.0000
       23 FE2    5px       -0.0000   -0.0000   -0.0132   -0.0052   -0.0000   -0.0170   -0.0067   -0.0000    0.0000   -0.0000
       24 FE2    2py        0.0000    0.0000   -0.0010    0.0026    0.0000   -0.0009    0.0022    0.0000   -0.0000    0.0000
       25 FE2    3py        0.0000    0.0000   -0.0222    0.0562    0.0000   -0.0180    0.0460   -0.0000   -0.0000    0.0000
       26 FE2    4py        0.0000   -0.0000    0.0311   -0.0786   -0.0000    0.1045   -0.2664   -0.0000    0.0000    0.0000
       27 FE2    5py        0.0000    0.0000   -0.0052    0.0132   -0.0000    0.0067   -0.0170   -0.0000    0.0000    0.0000
       28 FE2    2pz        0.0083   -0.0075   -0.0000    0.0000   -0.0004   -0.0000    0.0000   -0.0000    0.0000    0.0045
       29 FE2    3pz        0.2235   -0.1474   -0.0000    0.0000   -0.0029   -0.0000    0.0000   -0.0000    0.0000    0.0796
       30 FE2    4pz       -0.0225    0.0465    0.0000    0.0000    0.1117    0.0000   -0.0000   -0.0000   -0.0000   -0.6575
       31 FE2    5pz        0.0072   -0.0105   -0.0000    0.0000    0.0045    0.0000   -0.0000   -0.0000   -0.0000   -0.0509
       32 FE2    3d2-       0.0000   -0.0000   -0.0000   -0.0000   -0.0000   -0.0000   -0.0000    0.9821   -0.0124    0.0000
       33 FE2    4d2-       0.0000   -0.0000   -0.0000    0.0000    0.0000   -0.0000   -0.0000    0.1786   -0.0023    0.0000
       34 FE2    3d1-      -0.0000   -0.0000    0.1702   -0.4304    0.0000   -0.3110    0.7923    0.0000   -0.0000   -0.0000
       35 FE2    4d1-       0.0000   -0.0000    0.0249   -0.0629    0.0000   -0.0434    0.1106    0.0000   -0.0000   -0.0000
       36 FE2    3d0       -0.1543    0.3329    0.0000   -0.0000    0.4301   -0.0000   -0.0000   -0.0000    0.0000    0.6366
       37 FE2    4d0       -0.0077    0.0253    0.0000   -0.0000    0.0657   -0.0000   -0.0000   -0.0000    0.0000    0.1119
       38 FE2    3d1+       0.0000    0.0000    0.4304    0.1702    0.0000    0.7923    0.3110    0.0000   -0.0000    0.0000
       39 FE2    4d1+      -0.0000    0.0000    0.0629    0.0249    0.0000    0.1106    0.0434    0.0000   -0.0000    0.0000
       40 FE2    3d2+      -0.0000    0.0000    0.0000   -0.0000    0.0000   -0.0000    0.0000    0.0124    0.9821   -0.0000
       41 FE2    4d2+       0.0000   -0.0000    0.0000   -0.0000    0.0000   -0.0000    0.0000    0.0023    0.1786   -0.0000
       42 FE2    4f3-      -0.0000   -0.0000   -0.0000   -0.0000   -0.0000    0.0000   -0.0000    0.0000   -0.0000   -0.0000
       43 FE2    4f2-       0.0000    0.0000   -0.0000   -0.0000    0.0000   -0.0000   -0.0000   -0.0003    0.0000    0.0000
       44 FE2    4f1-      -0.0000   -0.0000    0.0074   -0.0188   -0.0000    0.0029   -0.0074    0.0000    0.0000   -0.0000
       45 FE2    4f0       -0.0114    0.0164    0.0000   -0.0000    0.0016    0.0000   -0.0000    0.0000   -0.0000   -0.0051
       46 FE2    4f1+       0.0000    0.0000    0.0188    0.0074    0.0000   -0.0074   -0.0029   -0.0000    0.0000   -0.0000
       47 FE2    4f2+      -0.0000    0.0000    0.0000   -0.0000   -0.0000   -0.0000    0.0000   -0.0000   -0.0003   -0.0000
       48 FE2    4f3+      -0.0000    0.0000    0.0000   -0.0000   -0.0000   -0.0000   -0.0000    0.0000    0.0000   -0.0000

          Orbital           21        22        23        24    
          Energy           -0.3294   -0.3294   -0.2299   -0.1354
          Occ. No.          0.0000    0.0000    0.0000    0.0000

        1 O1     1s         0.0000    0.0000   -0.0523   -0.1862
        2 O1     2s         0.0000   -0.0000   -0.4106   -1.3615
        3 O1     3s         0.0000   -0.0000   -0.1001   -0.4455
        4 O1     2px       -0.5332   -0.2629   -0.0000   -0.0000
        5 O1     3px       -0.1672   -0.0825   -0.0000   -0.0000
        6 O1     2py       -0.2629    0.5332    0.0000    0.0000
        7 O1     3py       -0.0825    0.1672    0.0000   -0.0000
        8 O1     2pz        0.0000   -0.0000    0.0003    0.7268
        9 O1     3pz        0.0000   -0.0000   -0.0021    0.5535
       10 O1     3d2-      -0.0000   -0.0000   -0.0000   -0.0000
       11 O1     3d1-      -0.0021    0.0042   -0.0000   -0.0000
       12 O1     3d0        0.0000    0.0000    0.0017   -0.0331
       13 O1     3d1+      -0.0042   -0.0021    0.0000    0.0000
       14 O1     3d2+       0.0000   -0.0000   -0.0000    0.0000
       15 FE2    1s         0.0000   -0.0000    0.0015    0.0162
       16 FE2    2s         0.0000   -0.0000    0.0112    0.1160
       17 FE2    3s         0.0000   -0.0000    0.0601    0.5358
       18 FE2    4s        -0.0000   -0.0000    0.4859    1.1019
       19 FE2    5s        -0.0000   -0.0000    0.8136   -0.8644
       20 FE2    2px        0.0026    0.0013    0.0000    0.0000
       21 FE2    3px        0.0609    0.0300    0.0000    0.0000
       22 FE2    4px        0.9789    0.4827    0.0000    0.0000
       23 FE2    5px        0.0896    0.0442    0.0000    0.0000
       24 FE2    2py        0.0013   -0.0026   -0.0000   -0.0000
       25 FE2    3py        0.0300   -0.0609   -0.0000    0.0000
       26 FE2    4py        0.4827   -0.9789   -0.0000    0.0000
       27 FE2    5py        0.0442   -0.0896   -0.0000    0.0000
       28 FE2    2pz        0.0000   -0.0000    0.0031    0.0226
       29 FE2    3pz       -0.0000   -0.0000    0.0651    0.3629
       30 FE2    4pz       -0.0000   -0.0000    0.5341    1.1276
       31 FE2    5pz       -0.0000   -0.0000    0.0522    0.1066
       32 FE2    3d2-       0.0000    0.0000    0.0000    0.0000
       33 FE2    4d2-       0.0000    0.0000   -0.0000   -0.0000
       34 FE2    3d1-       0.1602   -0.3249   -0.0000   -0.0000
       35 FE2    4d1-       0.0090   -0.0183   -0.0000   -0.0000
       36 FE2    3d0       -0.0000    0.0000    0.2265    0.5769
       37 FE2    4d0       -0.0000    0.0000    0.0132    0.1347
       38 FE2    3d1+       0.3249    0.1602    0.0000    0.0000
       39 FE2    4d1+       0.0183    0.0090    0.0000    0.0000
       40 FE2    3d2+      -0.0000    0.0000   -0.0000   -0.0000
       41 FE2    4d2+      -0.0000    0.0000   -0.0000   -0.0000
       42 FE2    4f3-       0.0000    0.0000   -0.0000    0.0000
       43 FE2    4f2-      -0.0000   -0.0000   -0.0000   -0.0000
       44 FE2    4f1-      -0.0031    0.0063    0.0000    0.0000
       45 FE2    4f0       -0.0000    0.0000   -0.0038   -0.0051
       46 FE2    4f1+      -0.0063   -0.0031   -0.0000    0.0000
       47 FE2    4f2+       0.0000   -0.0000    0.0000    0.0000
       48 FE2    4f3+      -0.0000   -0.0000    0.0000   -0.0000
--


++    Molecular charges:
      ------------------

      Mulliken charges per centre and basis function type
      ---------------------------------------------------

                            O1                      FE2   
                     alpha        beta       alpha        beta
      1s           1.0000      1.0000      1.0000      1.0000
      2s           0.9790      0.9725      1.0000      1.0000
      2px          0.9643      0.6688      1.0000      1.0000
      2pz          0.0465      0.8156      1.0000      1.0000
      2py          0.9643      0.6688      1.0000      1.0000
      3s           0.0044      0.0007      0.9998      0.9992
      3px         -0.0009     -0.0032      0.9987      0.9991
      3pz          0.0047      0.0088      0.9961      0.9955
      3py         -0.0009     -0.0032      0.9987      0.9991
      4s           0.0000      0.0000      0.0014      0.0017
      3d2+         0.0001      0.0000      0.9886      0.0000
      3d1+         0.0027      0.0083      0.9844      0.2772
      3d0          0.0052      0.0031      0.9363      0.1841
      3d1-         0.0027      0.0083      0.9844      0.2772
      3d2-         0.0001      0.0000      0.9886      0.0000
      4px          0.0000      0.0000      0.0226      0.0246
      4pz          0.0000      0.0000      0.0093      0.0077
      4py          0.0000      0.0000      0.0226      0.0246
      5s           0.0000      0.0000      0.0017      0.0043
      4d2+         0.0000      0.0000      0.0113      0.0000
      4d1+         0.0000      0.0000      0.0252      0.0219
      4d0          0.0000      0.0000      0.0135      0.0005
      4d1-         0.0000      0.0000      0.0252      0.0219
      4d2-         0.0000      0.0000      0.0113      0.0000
      5px          0.0000      0.0000      0.0005      0.0003
      5pz          0.0000      0.0000      0.0006      0.0036
      5py          0.0000      0.0000      0.0005      0.0003
      4f3+         0.0000      0.0000      0.0000      0.0000
      4f2+         0.0000      0.0000      0.0000      0.0000
      4f1+         0.0000      0.0000      0.0026      0.0029
      4f0          0.0000      0.0000      0.0015      0.0027
      4f1-         0.0000      0.0000      0.0026      0.0029
      4f2-         0.0000      0.0000      0.0000      0.0000
      4f3-         0.0000      0.0000      0.0000      0.0000
      Total        3.9721      4.1488     14.0279      9.8512
      Total              8.1209                 23.8791

      Charge           -0.1209                  2.1209

      Total electronic charge=   32.000000

      Total            charge=    2.000000
--


  Input file to MOLDEN was generated!


++    Static properties:
      ------------------


      LoProp Charges per center


                   O1       FE2   
      Nuclear      8.0000  26.0000
      Electronic  -8.2244 -23.7756

      Total       -0.2244   2.2244
--


++    Natural Bond Order analysis
      ---------------------------
      Based on LoProp computed density
      -------------------------------------------------------------------------------------
      Atom A       Atom B       Bond Order
        O1           FE2            2.788
      -------------------------------------------------------------------------------------
      NBO located     19.998 core electrons.
      NBO located      1.940 lone pair electrons.
      NBO located      5.576 electrons involved in    1 bonds.
      NBO located      0.906 non-bonded electrons on atom FE2       
      NBO located      1.000 non-bonded electrons on atom FE2       
      NBO located      1.000 non-bonded electrons on atom FE2       
      The remaining    1.580 electrons are to be considered as diffuse
--


++    Molecular orbitals:
      -------------------

      Title: Natural orbitals

      Molecular orbitals for symmetry species 1: a  

          Orbital            1         2         3         4         5         6         7         8         9        10    
          Energy         -264.4510  -32.5255  -22.1271  -27.7044  -27.7028  -26.6391   -5.9958   -4.1524   -4.1532   -4.0131
          Occ. No.          2.0000    2.0000    2.0000    2.0000    2.0000    2.0000    2.0000    1.9999    1.9999    1.9999

        1 O1     1s        -0.0000   -0.0852    0.9175   -0.0000    0.0000    0.3866    0.0309   -0.0000   -0.0000    0.0117
        2 O1     2s         0.0000    0.0034   -0.0189    0.0000   -0.0000   -0.0226   -0.0341    0.0000    0.0000    0.1302
        3 O1     3s         0.0000    0.0001   -0.0005    0.0000    0.0000   -0.0011   -0.0006    0.0000    0.0000    0.0036
        4 O1     2px        0.0000   -0.0000    0.0000    0.0006    0.0028    0.0000   -0.0000   -0.0240    0.0275   -0.0000
        5 O1     3px       -0.0000    0.0000   -0.0000   -0.0001   -0.0003   -0.0000   -0.0000    0.0023   -0.0026   -0.0000
        6 O1     2py       -0.0000    0.0000    0.0000    0.0028   -0.0006   -0.0000   -0.0000   -0.0275   -0.0240    0.0000
        7 O1     3py       -0.0000    0.0000   -0.0000   -0.0003    0.0001    0.0000   -0.0000    0.0026    0.0023   -0.0000
        8 O1     2pz       -0.0000   -0.0000    0.0033   -0.0000    0.0000    0.0023    0.0036   -0.0000   -0.0000   -0.0154
        9 O1     3pz       -0.0000   -0.0002    0.0001    0.0000   -0.0000    0.0021    0.0021   -0.0000   -0.0000   -0.0131
       10 O1     3d2-      -0.0000    0.0000    0.0000   -0.0000   -0.0000    0.0000   -0.0000    0.0000   -0.0000    0.0000
       11 O1     3d1-       0.0000   -0.0000    0.0000    0.0001   -0.0000   -0.0000    0.0000    0.0001    0.0001   -0.0000
       12 O1     3d0        0.0000   -0.0001   -0.0010    0.0000   -0.0000    0.0003    0.0006   -0.0000   -0.0000   -0.0025
       13 O1     3d1+       0.0000    0.0000    0.0000    0.0000    0.0001    0.0000    0.0000    0.0001   -0.0001    0.0000
       14 O1     3d2+      -0.0000    0.0000   -0.0000   -0.0000    0.0000   -0.0000    0.0000    0.0000   -0.0000   -0.0000
       15 FE2    1s         1.0000   -0.0000    0.0001   -0.0000    0.0000    0.0000    0.0000   -0.0000   -0.0000   -0.0005
       16 FE2    2s         0.0000    0.9852    0.0755   -0.0000    0.0000    0.0272    0.1520    0.0000    0.0000    0.0018
       17 FE2    3s         0.0001   -0.1466   -0.0837    0.0000   -0.0000    0.0923    0.9848   -0.0000   -0.0000   -0.0452
       18 FE2    4s        -0.0000    0.0002    0.0003   -0.0000    0.0000   -0.0000   -0.0018    0.0000    0.0000    0.0010
       19 FE2    5s         0.0000   -0.0003   -0.0002    0.0000   -0.0000    0.0004    0.0027   -0.0000   -0.0000   -0.0020
       20 FE2    2px       -0.0000    0.0000    0.0000    0.1923    0.9690    0.0000    0.0000    0.1021   -0.1171    0.0000
       21 FE2    3px        0.0000   -0.0000   -0.0000   -0.0302   -0.1524   -0.0000    0.0000    0.6497   -0.7444    0.0000
       22 FE2    4px        0.0000   -0.0000    0.0000    0.0004    0.0021    0.0000    0.0000   -0.0105    0.0120   -0.0000
       23 FE2    5px        0.0000   -0.0000   -0.0000   -0.0001   -0.0007   -0.0000    0.0000    0.0039   -0.0045    0.0000
       24 FE2    2py        0.0000   -0.0000    0.0000    0.9690   -0.1923   -0.0000   -0.0000    0.1169    0.1021   -0.0000
       25 FE2    3py       -0.0000    0.0000   -0.0000   -0.1522    0.0302    0.0000   -0.0000    0.7444    0.6497   -0.0000
       26 FE2    4py        0.0000   -0.0000    0.0000    0.0021   -0.0004   -0.0000    0.0000   -0.0120   -0.0105    0.0000
       27 FE2    5py        0.0000    0.0000   -0.0000   -0.0007    0.0001    0.0000    0.0000    0.0045    0.0039   -0.0000
       28 FE2    2pz       -0.0001   -0.0203    0.3789   -0.0000    0.0000   -0.9080    0.1089   -0.0000   -0.0000   -0.1409
       29 FE2    3pz       -0.0000    0.0118   -0.0442    0.0000   -0.0000    0.1301   -0.0410   -0.0000   -0.0000   -0.9963
       30 FE2    4pz       -0.0000    0.0002    0.0002   -0.0000    0.0000   -0.0018   -0.0017    0.0000    0.0000    0.0139
       31 FE2    5pz        0.0000   -0.0002   -0.0001    0.0000   -0.0000    0.0007    0.0014   -0.0000   -0.0000   -0.0050
       32 FE2    3d2-      -0.0000    0.0000    0.0000   -0.0000    0.0000    0.0000   -0.0000   -0.0000    0.0000   -0.0000
       33 FE2    4d2-      -0.0000    0.0000    0.0000   -0.0000    0.0000    0.0000   -0.0000    0.0000   -0.0000    0.0000
       34 FE2    3d1-       0.0000   -0.0000    0.0000    0.0039   -0.0008   -0.0000   -0.0000   -0.0280   -0.0245    0.0000
       35 FE2    4d1-       0.0000   -0.0000    0.0000    0.0003   -0.0001   -0.0000    0.0000   -0.0021   -0.0018    0.0000
       36 FE2    3d0       -0.0000    0.0009   -0.0013    0.0000    0.0000   -0.0076   -0.0100    0.0000    0.0000    0.0516
       37 FE2    4d0       -0.0000   -0.0001   -0.0002    0.0000   -0.0000    0.0004    0.0012   -0.0000   -0.0000   -0.0016
       38 FE2    3d1+      -0.0000   -0.0000    0.0000    0.0008    0.0039    0.0000   -0.0000   -0.0245    0.0280   -0.0000
       39 FE2    4d1+       0.0000   -0.0000    0.0000    0.0001    0.0003    0.0000    0.0000   -0.0018    0.0021   -0.0000
       40 FE2    3d2+      -0.0000    0.0000    0.0000   -0.0000    0.0000   -0.0000   -0.0000    0.0000    0.0000    0.0000
       41 FE2    4d2+       0.0000    0.0000   -0.0000    0.0000   -0.0000    0.0000    0.0000   -0.0000   -0.0000   -0.0000
       42 FE2    4f3-      -0.0000    0.0000    0.0000    0.0000   -0.0000   -0.0000   -0.0000   -0.0000   -0.0000   -0.0000
       43 FE2    4f2-      -0.0000    0.0000   -0.0000    0.0000    0.0000    0.0000    0.0000   -0.0000    0.0000    0.0000
       44 FE2    4f1-      -0.0000    0.0000    0.0000    0.0000   -0.0000   -0.0000   -0.0000   -0.0002   -0.0002    0.0000
       45 FE2    4f0        0.0000   -0.0001   -0.0003    0.0000   -0.0000   -0.0001    0.0004    0.0000    0.0000    0.0017
       46 FE2    4f1+      -0.0000   -0.0000    0.0000    0.0000    0.0000    0.0000   -0.0000   -0.0002    0.0002   -0.0000
       47 FE2    4f2+      -0.0000    0.0000    0.0000   -0.0000    0.0000    0.0000   -0.0000    0.0000    0.0000   -0.0000
       48 FE2    4f3+       0.0000   -0.0000   -0.0000    0.0000    0.0000    0.0000    0.0000   -0.0000    0.0000   -0.0000

          Orbital           11        12        13        14        15        16        17        18        19        20    
          Energy           -1.9918   -1.2499   -1.2499   -1.1502   -0.8819   -0.9577   -0.8819   -0.9577   -0.6138    0.4382
          Occ. No.          1.9984    1.9951    1.9951    1.5510    1.0000    1.0000    1.0000    1.0000    0.4490    0.0049

        1 O1     1s         0.0205   -0.0000    0.0000   -0.0289    0.0000    0.0000   -0.0000   -0.0000    0.0092    0.0000
        2 O1     2s         0.9361   -0.0000    0.0000   -0.3832    0.0000    0.0000   -0.0000   -0.0000    0.0528    0.0000
        3 O1     3s        -0.0052   -0.0000    0.0000   -0.0510    0.0000    0.0000   -0.0000   -0.0000    0.0379    0.0000
        4 O1     2px       -0.0000    0.7551    0.2007    0.0000   -0.5390    0.0001    0.1277   -0.0000    0.0000   -0.5148
        5 O1     3px        0.0000   -0.0505   -0.0134   -0.0000   -0.0192    0.0000    0.0045   -0.0000   -0.0000    0.1370
        6 O1     2py        0.0000    0.2007   -0.7551   -0.0000   -0.1277   -0.0005   -0.5390    0.0000   -0.0000   -0.0643
        7 O1     3py        0.0000   -0.0134    0.0505    0.0000   -0.0045   -0.0000   -0.0192    0.0000    0.0000    0.0171
        8 O1     2pz       -0.1536   -0.0000    0.0000   -0.5618    0.0000    0.0000    0.0000   -0.0000   -0.8200   -0.0000
        9 O1     3pz       -0.0190    0.0000   -0.0000    0.0676   -0.0000   -0.0000    0.0000    0.0000    0.0286   -0.0000
       10 O1     3d2-       0.0000    0.0000    0.0000    0.0000   -0.0000   -0.0002    0.0000    0.0015   -0.0000    0.0000
       11 O1     3d1-      -0.0000   -0.0111    0.0418    0.0000    0.0036    0.0000    0.0153   -0.0000   -0.0000   -0.0145
       12 O1     3d0        0.0222    0.0000   -0.0000    0.0333   -0.0000   -0.0000   -0.0000    0.0000   -0.0015   -0.0000
       13 O1     3d1+       0.0000   -0.0418   -0.0111   -0.0000    0.0153   -0.0000   -0.0036    0.0000    0.0000   -0.1157
       14 O1     3d2+      -0.0000    0.0000    0.0000   -0.0000    0.0000    0.0015   -0.0000    0.0002    0.0000   -0.0000
       15 FE2    1s        -0.0032    0.0000    0.0000   -0.0014    0.0000    0.0000    0.0000    0.0000   -0.0045   -0.0000
       16 FE2    2s        -0.0199    0.0000    0.0000   -0.0098    0.0000   -0.0000    0.0000    0.0000   -0.0324   -0.0000
       17 FE2    3s        -0.0889    0.0000    0.0000   -0.0445    0.0000   -0.0000    0.0000    0.0000   -0.1651   -0.0000
       18 FE2    4s         0.0023    0.0000   -0.0000    0.0355   -0.0000   -0.0000   -0.0000   -0.0000    0.0574   -0.0000
       19 FE2    5s        -0.0057   -0.0000    0.0000   -0.0076    0.0000    0.0000    0.0000   -0.0000   -0.0319    0.0000
       20 FE2    2px       -0.0000    0.0012    0.0003   -0.0000    0.0021   -0.0000   -0.0005    0.0000   -0.0000    0.0000
       21 FE2    3px        0.0000    0.0077    0.0020   -0.0000    0.0488   -0.0000   -0.0116    0.0000   -0.0000    0.0112
       22 FE2    4px       -0.0000    0.0663    0.0176    0.0000   -0.0361    0.0000    0.0085   -0.0000    0.0000    0.3086
       23 FE2    5px        0.0000   -0.0106   -0.0028   -0.0000    0.0188   -0.0000   -0.0045    0.0000   -0.0000   -0.0666
       24 FE2    2py       -0.0000    0.0003   -0.0012    0.0000    0.0005    0.0000    0.0021   -0.0000    0.0000    0.0000
       25 FE2    3py       -0.0000    0.0020   -0.0077    0.0000    0.0116    0.0000    0.0488   -0.0000    0.0000    0.0014
       26 FE2    4py        0.0000    0.0176   -0.0663   -0.0000   -0.0085   -0.0000   -0.0361    0.0000   -0.0000    0.0386
       27 FE2    5py       -0.0000   -0.0028    0.0106    0.0000    0.0045    0.0000    0.0188   -0.0000    0.0000   -0.0083
       28 FE2    2pz        0.0025   -0.0000    0.0000   -0.0028    0.0000    0.0000    0.0000    0.0000   -0.0087    0.0000
       29 FE2    3pz        0.0073    0.0000   -0.0000   -0.0295    0.0000    0.0000    0.0000    0.0000   -0.1619   -0.0000
       30 FE2    4pz        0.0191    0.0000   -0.0000    0.0275   -0.0000    0.0000   -0.0000   -0.0000    0.0462   -0.0000
       31 FE2    5pz       -0.0075    0.0000   -0.0000   -0.0021    0.0000   -0.0000    0.0000    0.0000   -0.0184   -0.0000
       32 FE2    3d2-      -0.0000   -0.0000   -0.0000   -0.0000   -0.0000   -0.1609    0.0001    0.9811    0.0000   -0.0000
       33 FE2    4d2-      -0.0000   -0.0000    0.0000   -0.0000    0.0000    0.0172   -0.0000   -0.1049   -0.0000   -0.0000
       34 FE2    3d1-       0.0000    0.1170   -0.4402   -0.0000    0.2074    0.0007    0.8757   -0.0000    0.0000    0.0162
       35 FE2    4d1-       0.0000    0.0056   -0.0212    0.0000   -0.0235   -0.0001   -0.0992    0.0000   -0.0000    0.1146
       36 FE2    3d0        0.1525    0.0000   -0.0000    0.7344    0.0000   -0.0000    0.0000    0.0000   -0.6668   -0.0000
       37 FE2    4d0       -0.0021    0.0000    0.0000   -0.0327   -0.0000    0.0000   -0.0000   -0.0000    0.1145    0.0000
       38 FE2    3d1+      -0.0000    0.4402    0.1170    0.0000    0.8757   -0.0002   -0.2074    0.0000   -0.0000    0.1300
       39 FE2    4d1+      -0.0000    0.0212    0.0056    0.0000   -0.0992    0.0000    0.0235   -0.0000    0.0000    0.9168
       40 FE2    3d2+       0.0000    0.0000   -0.0000    0.0000    0.0000    0.9811   -0.0008    0.1609   -0.0000    0.0000
       41 FE2    4d2+      -0.0000    0.0000    0.0000   -0.0000   -0.0000   -0.1049    0.0001   -0.0172    0.0000    0.0000
       42 FE2    4f3-       0.0000   -0.0000   -0.0000   -0.0000   -0.0000   -0.0000    0.0000   -0.0000    0.0000   -0.0000
       43 FE2    4f2-      -0.0000   -0.0000   -0.0000    0.0000    0.0000    0.0001   -0.0000   -0.0003   -0.0000   -0.0000
       44 FE2    4f1-       0.0000    0.0043   -0.0163   -0.0000   -0.0016   -0.0000   -0.0067    0.0000   -0.0000    0.0087
       45 FE2    4f0        0.0111    0.0000   -0.0000    0.0122   -0.0000   -0.0000   -0.0000    0.0000    0.0119    0.0000
       46 FE2    4f1+      -0.0000    0.0163    0.0043    0.0000   -0.0067    0.0000    0.0016   -0.0000    0.0000    0.0697
       47 FE2    4f2+       0.0000    0.0000   -0.0000    0.0000   -0.0000   -0.0003    0.0000   -0.0001    0.0000    0.0000
       48 FE2    4f3+       0.0000   -0.0000    0.0000    0.0000    0.0000   -0.0000    0.0000    0.0000    0.0000    0.0000

          Orbital           21        22        23        24        25        26        27        28        29        30    
          Energy            0.4382    1.7037    1.1395    1.0254    1.0254   -0.0203    1.5610    1.3010    1.3010    0.5845
          Occ. No.          0.0049    0.0016    0.0001    0.0001    0.0001    0.0000    0.0000    0.0000    0.0000    0.0000

        1 O1     1s        -0.0000   -0.0283   -0.0706   -0.0000   -0.0000    0.0848   -0.1530    0.0000    0.0000    0.1583
        2 O1     2s         0.0000   -0.0918   -0.5209   -0.0000   -0.0000    0.6274   -1.1584    0.0000    0.0000    0.8656
        3 O1     3s        -0.0000   -0.0578    0.0332    0.0000    0.0000   -0.1437   -1.2734    0.0000    0.0000    0.0272
        4 O1     2px        0.0643    0.0000    0.0000    0.1685   -0.1555    0.0000    0.0000   -0.3276    0.2963    0.0000
        5 O1     3px       -0.0171    0.0000    0.0000    0.2255   -0.2082    0.0000    0.0000   -0.6667    0.6032    0.0000
        6 O1     2py       -0.5148   -0.0000   -0.0000    0.1555    0.1685    0.0000   -0.0000   -0.2963   -0.3276   -0.0000
        7 O1     3py        0.1370   -0.0000   -0.0000    0.2082    0.2255    0.0000   -0.0000   -0.6032   -0.6667   -0.0000
        8 O1     2pz       -0.0000   -0.0868    0.4079    0.0000    0.0000   -0.3860    0.9376   -0.0000   -0.0000   -0.2255
        9 O1     3pz       -0.0000   -0.1740    0.1511    0.0000    0.0000    0.1552    0.8251   -0.0000   -0.0000    0.0094
       10 O1     3d2-      -0.0000    0.0000   -0.0000    0.0000   -0.0000    0.0000    0.0000    0.0000   -0.0000    0.0000
       11 O1     3d1-      -0.1157    0.0000   -0.0000    0.0588    0.0637    0.0000   -0.0000   -0.2641   -0.2920    0.0000
       12 O1     3d0       -0.0000    1.0064   -0.1978   -0.0000   -0.0000   -0.0468   -0.4963    0.0000    0.0000    0.2954
       13 O1     3d1+       0.0145   -0.0000    0.0000    0.0637   -0.0588   -0.0000    0.0000   -0.2920    0.2641   -0.0000
       14 O1     3d2+      -0.0000   -0.0000    0.0000   -0.0000   -0.0000   -0.0000   -0.0000   -0.0000    0.0000   -0.0000
       15 FE2    1s         0.0000   -0.0091    0.0062    0.0000    0.0000   -0.0004    0.0288   -0.0000   -0.0000   -0.0053
       16 FE2    2s         0.0000   -0.0646    0.0447    0.0000    0.0000   -0.0039    0.2053   -0.0000   -0.0000   -0.0384
       17 FE2    3s         0.0000   -0.2610    0.2112    0.0000    0.0000   -0.0579    0.8919   -0.0000   -0.0000   -0.1942
       18 FE2    4s        -0.0000   -0.1005    0.0408   -0.0000   -0.0000   -0.7299    1.4568   -0.0000   -0.0000   -0.1343
       19 FE2    5s         0.0000    0.0776   -0.0108    0.0000   -0.0000    0.6848   -0.6783    0.0000    0.0000    0.2635
       20 FE2    2px       -0.0000   -0.0000   -0.0000   -0.0016    0.0015   -0.0000   -0.0000    0.0032   -0.0029   -0.0000
       21 FE2    3px       -0.0014   -0.0000   -0.0000   -0.0326    0.0301   -0.0000   -0.0000    0.0540   -0.0489   -0.0000
       22 FE2    4px       -0.0386   -0.0000   -0.0000   -0.4349    0.4015   -0.0000   -0.0000    0.5635   -0.5098   -0.0000
       23 FE2    5px        0.0083    0.0000    0.0000    0.5679   -0.5243    0.0000   -0.0000    0.4786   -0.4330    0.0000
       24 FE2    2py        0.0000    0.0000    0.0000   -0.0015   -0.0016    0.0000    0.0000    0.0029    0.0032    0.0000
       25 FE2    3py        0.0112    0.0000    0.0000   -0.0301   -0.0326    0.0000    0.0000    0.0489    0.0540    0.0000
       26 FE2    4py        0.3086    0.0000    0.0000   -0.4015   -0.4349    0.0000    0.0000    0.5098    0.5635    0.0000
       27 FE2    5py       -0.0666   -0.0000   -0.0000    0.5243    0.5679   -0.0000    0.0000    0.4330    0.4786    0.0000
       28 FE2    2pz        0.0000   -0.0173    0.0110    0.0000    0.0000   -0.0046    0.0399   -0.0000   -0.0000   -0.0123
       29 FE2    3pz        0.0000   -0.1884    0.1766    0.0000    0.0000   -0.1264    0.5197   -0.0000   -0.0000   -0.2015
       30 FE2    4pz       -0.0000    0.0906    0.7775    0.0000    0.0000   -0.3023    0.3151    0.0000    0.0000   -0.4686
       31 FE2    5pz       -0.0000   -0.0093   -0.8485   -0.0000   -0.0000    0.1972   -0.8868    0.0000    0.0000   -0.0185
       32 FE2    3d2-       0.0000   -0.0000    0.0000   -0.0000    0.0000   -0.0000   -0.0000    0.0000   -0.0000   -0.0000
       33 FE2    4d2-       0.0000   -0.0000   -0.0000   -0.0000    0.0000   -0.0000   -0.0000    0.0000   -0.0000   -0.0000
       34 FE2    3d1-       0.1300    0.0000   -0.0000   -0.0227   -0.0246   -0.0000    0.0000    0.0448    0.0496    0.0000
       35 FE2    4d1-       0.9168    0.0000   -0.0000    0.0580    0.0628   -0.0000    0.0000    0.1771    0.1958    0.0000
       36 FE2    3d0        0.0000   -0.0857    0.1579    0.0000    0.0000   -0.2384    0.2539   -0.0000   -0.0000   -0.3282
       37 FE2    4d0        0.0000    0.3767    0.0066   -0.0000   -0.0000   -0.1196    0.3686   -0.0000   -0.0000   -1.1342
       38 FE2    3d1+      -0.0162   -0.0000    0.0000   -0.0246    0.0227   -0.0000   -0.0000    0.0496   -0.0448   -0.0000
       39 FE2    4d1+      -0.1146   -0.0000    0.0000    0.0628   -0.0580    0.0000   -0.0000    0.1958   -0.1771   -0.0000
       40 FE2    3d2+       0.0000    0.0000   -0.0000    0.0000    0.0000    0.0000    0.0000   -0.0000    0.0000    0.0000
       41 FE2    4d2+       0.0000    0.0000    0.0000    0.0000   -0.0000    0.0000    0.0000   -0.0000    0.0000    0.0000
       42 FE2    4f3-      -0.0000   -0.0000   -0.0000   -0.0000   -0.0000    0.0000   -0.0000    0.0000   -0.0000    0.0000
       43 FE2    4f2-       0.0000   -0.0000   -0.0000    0.0000   -0.0000   -0.0000   -0.0000   -0.0000    0.0000   -0.0000
       44 FE2    4f1-       0.0697    0.0000    0.0000   -0.1329   -0.1439    0.0000    0.0000    0.2531    0.2797    0.0000
       45 FE2    4f0        0.0000    0.0190    0.0613    0.0000    0.0000    0.0949    0.1259    0.0000    0.0000   -0.0566
       46 FE2    4f1+      -0.0087   -0.0000   -0.0000   -0.1439    0.1329   -0.0000   -0.0000    0.2797   -0.2531    0.0000
       47 FE2    4f2+       0.0000    0.0000    0.0000   -0.0000   -0.0000    0.0000    0.0000   -0.0000    0.0000    0.0000
       48 FE2    4f3+       0.0000    0.0000    0.0000   -0.0000    0.0000   -0.0000    0.0000    0.0000   -0.0000   -0.0000

          Orbital           31        32        33        34        35        36        37        38        39        40    
          Energy            0.7521    0.0578    0.8511    0.0565    0.3888    2.8063    0.3228    1.6893    0.3224    1.6915
          Occ. No.          0.0000    0.0000    0.0000    0.0000    0.0000    0.0000    0.0000    0.0000    0.0000    0.0000

        1 O1     1s         0.1802   -0.0000    0.1550    0.0000    0.0278    0.3142    0.0000    0.0000    0.0000    0.0000
        2 O1     2s         1.3358   -0.0000    1.1466    0.0000    0.3480    2.0780    0.0001    0.0003    0.0000    0.0002
        3 O1     3s         1.0512   -0.0000    1.3380   -0.0000    0.2048    1.3313    0.0000    0.0002    0.0000    0.0001
        4 O1     2px       -0.0000    0.0587    0.0000    0.0282   -0.0000    0.0000   -0.0018   -0.4493    0.0075   -0.0074
        5 O1     3px       -0.0000   -0.2449   -0.0000   -0.1241    0.0000    0.0001   -0.0148   -1.1261    0.0064   -0.0222
        6 O1     2py        0.0000    0.0296   -0.0000   -0.0588   -0.0000    0.0000   -0.0024   -0.0136   -0.0065    0.4482
        7 O1     3py       -0.0000   -0.1207   -0.0000    0.2451   -0.0000   -0.0000   -0.0054   -0.0289   -0.0156    1.1251
        8 O1     2pz       -0.3236    0.0000   -0.4327   -0.0000   -0.4958   -0.7293   -0.0000   -0.0001   -0.0000   -0.0001
        9 O1     3pz       -0.2352    0.0000   -0.2388   -0.0000   -1.4421   -0.1900   -0.0000   -0.0001   -0.0000   -0.0001
       10 O1     3d2-      -0.0000   -0.0000    0.0000   -0.0000   -0.0001    0.0000    0.0753    0.0060    0.0039    0.0113
       11 O1     3d1-      -0.0000   -0.0891    0.0000    0.1787    0.0000   -0.0000    0.0023    0.0139    0.0056   -0.3456
       12 O1     3d0       -0.0104   -0.0000    0.0697    0.0000    0.0243    0.1614    0.0000    0.0000    0.0000    0.0000
       13 O1     3d1+       0.0000   -0.1786   -0.0000   -0.0880    0.0000    0.0000   -0.0050    0.3476   -0.0134    0.0033
       14 O1     3d2+      -0.0000    0.0000    0.0000    0.0000   -0.0000   -0.0000   -0.0027    0.0210    0.0769   -0.0035
       15 FE2    1s        -0.0141    0.0000   -0.0168   -0.0000   -0.0211   -0.0205   -0.0000   -0.0000   -0.0000   -0.0000
       16 FE2    2s        -0.1015    0.0000   -0.1207   -0.0000   -0.1482   -0.1479   -0.0000   -0.0000   -0.0000   -0.0000
       17 FE2    3s        -0.4680    0.0000   -0.5447   -0.0000   -0.5992   -0.6977   -0.0000   -0.0001   -0.0000   -0.0001
       18 FE2    4s        -1.5064    0.0000   -0.7179   -0.0000   -0.7873   -1.6120   -0.0000   -0.0002   -0.0000   -0.0001
[...]
      Number of basis functions:    48
      Frozen orbitals:               0
      Deleted orbitals:              0
      Number of orbitals used:      48

       SYMMETRY  BASIS FUNCTIONS       ORBITALS      INTEGRALS   CPU(SEC)  I/O(SEC)

        1 1 1 1   48  48  48  48    48  48  48  48      692076       0.00      0.00

       TOTAL CPU TIME(SEC)    0.36TOTAL I/O TIME(SEC)    0.42

--- Stop Module: motra at Tue Dec  3 13:30:22 2024 /rc=_RC_ALL_IS_WELL_ ---

>>> COPY /lustre/isaac/scratch/gjones39/condo_cluster/1.42/2739831/GMJ_one_int_indx.csv /lustre/isaac/scratch/gjones39/condo_cluster/1.42/1.42.GMJ_one_int_indx.csv

>>> COPY /lustre/isaac/scratch/gjones39/condo_cluster/1.42/2739831/GMJ_one_int.csv /lustre/isaac/scratch/gjones39/condo_cluster/1.42/1.42.GMJ_one_int.csv

>>> COPY /lustre/isaac/scratch/gjones39/condo_cluster/1.42/2739831/GMJ_two_int_indx.csv /lustre/isaac/scratch/gjones39/condo_cluster/1.42/1.42.GMJ_two_int_indx.csv

>>> COPY /lustre/isaac/scratch/gjones39/condo_cluster/1.42/2739831/GMJ_two_int.csv /lustre/isaac/scratch/gjones39/condo_cluster/1.42/1.42.GMJ_two_int.csv

*** symbolic link created: INPORB -> 1.42.RasOrb
--- Start Module: caspt2 at Tue Dec  3 13:30:22 2024 ---

()()()()()()()()()()()()()()()()()()()()()()()()()()()()()()()()()()()()()()()()()()()()()()()()()()

                                              &CASPT2

                                   only a single process is used
                       available to each process: 16 GB of memory, 1 thread?
()()()()()()()()()()()()()()()()()()()()()()()()()()()()()()()()()()()()()()()()()()()()()()()()()()

 Cholesky algorithm in CASPT2 =    1

 ###############################################################################
 ###############################################################################
 ###                                                                         ###
 ###                                                                         ###
 ###    User changed nr of frozen orbitals.                                  ###
 ###                                                                         ###
 ###                                                                         ###
 ###############################################################################
 ###############################################################################

++    Wave function specifications:
      -----------------------------

      Number of closed shell electrons          22
      Number of electrons in active shells      10
      Max number of holes in RAS1 space          0
      Max number of electrons in RAS3 space      0
      Number of inactive orbitals               11
      Number of active orbitals                 14
      Number of secondary orbitals              23
      Spin quantum number                      2.0
      State symmetry                             1
      Number of CSFs                        975975
      Number of root(s) available                1
      Root passed to geometry opt.               1
      A file JOBMIX will be created.
      This is a CASSCF or RASSCF reference function
--

++    Orbital specifications:
      -----------------------

      Symmetry species                           1
                                                 a
      Frozen orbitals                            0
      Inactive orbitals                         11
      Active orbitals                           14
      Secondary orbitals                        23
      Deleted orbitals                           0
      Number of basis functions                 48
--

      Type of Fock operator: STANDARD
      Type of 0-order Hamiltonian: STANDARD WITH DEFAULT IPEA
        "IP-EA" denominator shift =      0.25
      The input orbitals and the CI vector will be transformed.

--------------------------------------------------------------------------------
 Estimated memory requirements:
  POLY3 :                312573350
  RHS:                     4146972
  SIGMA :                   646704
  PRPCTL:                        0
 Available workspace:   1798620647

++ CASPT2 computation for group   1

********************************************************************************
 Multi-State initialization phase begins for group   1
--------------------------------------------------------------------------------
********************************************************************************
 Compute H0 matrices for state    1
--------------------------------------------------------------------------------
--------------------------------------------------------------------------------
 H0 matrices have been computed.

********************************************************************************
  CASPT2 EQUATION SOLUTION
--------------------------------------------------------------------------------

  Total nr of CASPT2 parameters:
   Before reduction:      408969
   After  reduction:      408240

 The contributions to the second order correlation energy in atomic units.
-----------------------------------------------------------------------------------------------------------------------------
  IT.      VJTU        VJTI        ATVX        AIVX        VJAI        BVAT        BJAT        BJAI        TOTAL       RNORM  
-----------------------------------------------------------------------------------------------------------------------------
   1    -0.010214   -0.032247   -0.024133   -0.181287   -0.021752   -0.081630   -0.021948   -0.042337   -0.415549    0.009861
   2    -0.010298   -0.032324   -0.024409   -0.181903   -0.021760   -0.081793   -0.021944   -0.042362   -0.416792    0.001608
   3    -0.010305   -0.032330   -0.024422   -0.181953   -0.021765   -0.081799   -0.021951   -0.042366   -0.416891    0.000289
   4    -0.010303   -0.032329   -0.024420   -0.181935   -0.021764   -0.081793   -0.021950   -0.042365   -0.416860    0.000043
   5    -0.010303   -0.032329   -0.024420   -0.181934   -0.021764   -0.081793   -0.021950   -0.042365   -0.416858    0.000007
   6    -0.010303   -0.032329   -0.024420   -0.181934   -0.021764   -0.081793   -0.021950   -0.042365   -0.416858    0.000001
-------------------------------------------------------------------------------------------------------------------

  FINAL CASPT2 RESULT:

  Correlation energy /Case, /Symm, and sums:
 VJTU     -0.01030338 -0.01030338
 VJTIP    -0.01336243 -0.01336243
 VJTIM    -0.01896613 -0.01896613
 ATVX     -0.02441951 -0.02441951
 AIVX     -0.18193445 -0.18193445
 VJAIP    -0.01520301 -0.01520301
 VJAIM    -0.00656117 -0.00656117
 BVATP    -0.03025132 -0.03025132
 BVATM    -0.05154169 -0.05154169
 BJATP    -0.01197223 -0.01197223
 BJATM    -0.00997772 -0.00997772
 BJAIP    -0.02854590 -0.02854590
 BJAIM    -0.01381942 -0.01381942
 Summed:  -0.41685835 -0.41685835

      Reference energy:       -1345.4138451298
      E2 (Non-variational):      -0.4168583515
      E2 (Variational):          -0.4168583287
      Total energy:           -1345.8307034585
      Residual norm:              0.0000002757
      Reference weight:           0.93696

      Contributions to the CASPT2 correlation energy
      Active & Virtual Only:         -0.1062125218
      One Inactive Excited:          -0.2141877751
      Two Inactive Excited:          -0.0964580547


++ Denominators, etc.
----------------------------------------------------------------------------------------------------
 Report on small energy denominators, large coefficients, and large energy contributions.
CASE  SYMM ACTIVE-MIX  NON-ACTIVE INDICES          DENOMINATOR     RHS VALUE       COEFFICIENT     CONTRIBUTION
VJTIM    1  Mu1.0006  In1.010 In1.009               5.45627391      0.13890236     -0.02545125     -0.00353524
ATVX     1  Mu1.0001  Se1.026                       0.17110023     -0.00000000      0.00000000     -0.00000000
ATVX     1  Mu1.0002  Se1.026                       0.17110023      0.00000000      0.00000000      0.00000000
ATVX     1  Mu1.0003  Se1.026                       0.20422051     -0.00000000      0.00000000     -0.00000000
ATVX     1  Mu1.0004  Se1.026                       0.20434434     -0.00000000      0.00000000     -0.00000000
--

   (Skipping property calculation,
    use PROP keyword to activate)
--

  Total CASPT2 energies:
::    CASPT2 Root  1     Total energy:  -1345.83070346

  A NEW JOBIPH FILE NAMED 'JOBMIX' IS PREPARED.
********************************************************************************
--- Stop Module: caspt2 at Tue Dec  3 14:03:45 2024 /rc=_RC_ALL_IS_WELL_ ---
*** files: xmldump
    saved to directory /lustre/isaac/scratch/gjones39/condo_cluster/1.42
--- Module caspt2 spent 33 minutes 22 seconds ---

>>> EXPORT i = B

>>> EXPORT j = P

>>> IF (-FILE GMJ_e2_${i}_${j}.csv)

>>> COPY /lustre/isaac/scratch/gjones39/condo_cluster/1.42/2739831/GMJ_RHS_B_P.csv /lustre/isaac/scratch/gjones39/condo_cluster/1.42/GMJ_RHS_B_P.csv

>>> COPY /lustre/isaac/scratch/gjones39/condo_cluster/1.42/2739831/GMJ_IVECW_B_P.csv /lustre/isaac/scratch/gjones39/condo_cluster/1.42/GMJ_IVECW_B_P.csv

>>> COPY /lustre/isaac/scratch/gjones39/condo_cluster/1.42/2739831/GMJ_IVECX_B_P.csv /lustre/isaac/scratch/gjones39/condo_cluster/1.42/GMJ_IVECX_B_P.csv

>>> COPY /lustre/isaac/scratch/gjones39/condo_cluster/1.42/2739831/GMJ_IVECC2_B_P.csv /lustre/isaac/scratch/gjones39/condo_cluster/1.42/GMJ_IVECC2_B_P.csv

>>> COPY /lustre/isaac/scratch/gjones39/condo_cluster/1.42/2739831/GMJ_e2_B_P.csv /lustre/isaac/scratch/gjones39/condo_cluster/1.42/GMJ_e2_B_P.csv

>>> END FOREACH

>>> EXPORT j = M

>>> IF (-FILE GMJ_e2_${i}_${j}.csv)

>>> COPY /lustre/isaac/scratch/gjones39/condo_cluster/1.42/2739831/GMJ_RHS_B_M.csv /lustre/isaac/scratch/gjones39/condo_cluster/1.42/GMJ_RHS_B_M.csv

>>> COPY /lustre/isaac/scratch/gjones39/condo_cluster/1.42/2739831/GMJ_IVECW_B_M.csv /lustre/isaac/scratch/gjones39/condo_cluster/1.42/GMJ_IVECW_B_M.csv

>>> COPY /lustre/isaac/scratch/gjones39/condo_cluster/1.42/2739831/GMJ_IVECX_B_M.csv /lustre/isaac/scratch/gjones39/condo_cluster/1.42/GMJ_IVECX_B_M.csv

>>> COPY /lustre/isaac/scratch/gjones39/condo_cluster/1.42/2739831/GMJ_IVECC2_B_M.csv /lustre/isaac/scratch/gjones39/condo_cluster/1.42/GMJ_IVECC2_B_M.csv

>>> COPY /lustre/isaac/scratch/gjones39/condo_cluster/1.42/2739831/GMJ_e2_B_M.csv /lustre/isaac/scratch/gjones39/condo_cluster/1.42/GMJ_e2_B_M.csv

>>> END FOREACH

>>> END FOREACH

>>> EXPORT i = E

>>> EXPORT j = P

>>> IF (-FILE GMJ_e2_${i}_${j}.csv)

>>> COPY /lustre/isaac/scratch/gjones39/condo_cluster/1.42/2739831/GMJ_RHS_E_P.csv /lustre/isaac/scratch/gjones39/condo_cluster/1.42/GMJ_RHS_E_P.csv

>>> COPY /lustre/isaac/scratch/gjones39/condo_cluster/1.42/2739831/GMJ_IVECW_E_P.csv /lustre/isaac/scratch/gjones39/condo_cluster/1.42/GMJ_IVECW_E_P.csv

>>> COPY /lustre/isaac/scratch/gjones39/condo_cluster/1.42/2739831/GMJ_IVECX_E_P.csv /lustre/isaac/scratch/gjones39/condo_cluster/1.42/GMJ_IVECX_E_P.csv

>>> COPY /lustre/isaac/scratch/gjones39/condo_cluster/1.42/2739831/GMJ_IVECC2_E_P.csv /lustre/isaac/scratch/gjones39/condo_cluster/1.42/GMJ_IVECC2_E_P.csv

>>> COPY /lustre/isaac/scratch/gjones39/condo_cluster/1.42/2739831/GMJ_e2_E_P.csv /lustre/isaac/scratch/gjones39/condo_cluster/1.42/GMJ_e2_E_P.csv

>>> END FOREACH

>>> EXPORT j = M

>>> IF (-FILE GMJ_e2_${i}_${j}.csv)

>>> COPY /lustre/isaac/scratch/gjones39/condo_cluster/1.42/2739831/GMJ_RHS_E_M.csv /lustre/isaac/scratch/gjones39/condo_cluster/1.42/GMJ_RHS_E_M.csv

>>> COPY /lustre/isaac/scratch/gjones39/condo_cluster/1.42/2739831/GMJ_IVECW_E_M.csv /lustre/isaac/scratch/gjones39/condo_cluster/1.42/GMJ_IVECW_E_M.csv

>>> COPY /lustre/isaac/scratch/gjones39/condo_cluster/1.42/2739831/GMJ_IVECX_E_M.csv /lustre/isaac/scratch/gjones39/condo_cluster/1.42/GMJ_IVECX_E_M.csv

>>> COPY /lustre/isaac/scratch/gjones39/condo_cluster/1.42/2739831/GMJ_IVECC2_E_M.csv /lustre/isaac/scratch/gjones39/condo_cluster/1.42/GMJ_IVECC2_E_M.csv

>>> COPY /lustre/isaac/scratch/gjones39/condo_cluster/1.42/2739831/GMJ_e2_E_M.csv /lustre/isaac/scratch/gjones39/condo_cluster/1.42/GMJ_e2_E_M.csv

>>> END FOREACH

>>> END FOREACH

>>> EXPORT i = F

>>> EXPORT j = P

>>> IF (-FILE GMJ_e2_${i}_${j}.csv)

>>> COPY /lustre/isaac/scratch/gjones39/condo_cluster/1.42/2739831/GMJ_RHS_F_P.csv /lustre/isaac/scratch/gjones39/condo_cluster/1.42/GMJ_RHS_F_P.csv

>>> COPY /lustre/isaac/scratch/gjones39/condo_cluster/1.42/2739831/GMJ_IVECW_F_P.csv /lustre/isaac/scratch/gjones39/condo_cluster/1.42/GMJ_IVECW_F_P.csv

>>> COPY /lustre/isaac/scratch/gjones39/condo_cluster/1.42/2739831/GMJ_IVECX_F_P.csv /lustre/isaac/scratch/gjones39/condo_cluster/1.42/GMJ_IVECX_F_P.csv

>>> COPY /lustre/isaac/scratch/gjones39/condo_cluster/1.42/2739831/GMJ_IVECC2_F_P.csv /lustre/isaac/scratch/gjones39/condo_cluster/1.42/GMJ_IVECC2_F_P.csv

>>> COPY /lustre/isaac/scratch/gjones39/condo_cluster/1.42/2739831/GMJ_e2_F_P.csv /lustre/isaac/scratch/gjones39/condo_cluster/1.42/GMJ_e2_F_P.csv

>>> END FOREACH

>>> EXPORT j = M

>>> IF (-FILE GMJ_e2_${i}_${j}.csv)

>>> COPY /lustre/isaac/scratch/gjones39/condo_cluster/1.42/2739831/GMJ_RHS_F_M.csv /lustre/isaac/scratch/gjones39/condo_cluster/1.42/GMJ_RHS_F_M.csv

>>> COPY /lustre/isaac/scratch/gjones39/condo_cluster/1.42/2739831/GMJ_IVECW_F_M.csv /lustre/isaac/scratch/gjones39/condo_cluster/1.42/GMJ_IVECW_F_M.csv

>>> COPY /lustre/isaac/scratch/gjones39/condo_cluster/1.42/2739831/GMJ_IVECX_F_M.csv /lustre/isaac/scratch/gjones39/condo_cluster/1.42/GMJ_IVECX_F_M.csv

>>> COPY /lustre/isaac/scratch/gjones39/condo_cluster/1.42/2739831/GMJ_IVECC2_F_M.csv /lustre/isaac/scratch/gjones39/condo_cluster/1.42/GMJ_IVECC2_F_M.csv

>>> COPY /lustre/isaac/scratch/gjones39/condo_cluster/1.42/2739831/GMJ_e2_F_M.csv /lustre/isaac/scratch/gjones39/condo_cluster/1.42/GMJ_e2_F_M.csv

>>> END FOREACH

>>> END FOREACH

>>> EXPORT i = G

>>> EXPORT j = P

>>> IF (-FILE GMJ_e2_${i}_${j}.csv)

>>> COPY /lustre/isaac/scratch/gjones39/condo_cluster/1.42/2739831/GMJ_RHS_G_P.csv /lustre/isaac/scratch/gjones39/condo_cluster/1.42/GMJ_RHS_G_P.csv

>>> COPY /lustre/isaac/scratch/gjones39/condo_cluster/1.42/2739831/GMJ_IVECW_G_P.csv /lustre/isaac/scratch/gjones39/condo_cluster/1.42/GMJ_IVECW_G_P.csv

>>> COPY /lustre/isaac/scratch/gjones39/condo_cluster/1.42/2739831/GMJ_IVECX_G_P.csv /lustre/isaac/scratch/gjones39/condo_cluster/1.42/GMJ_IVECX_G_P.csv

>>> COPY /lustre/isaac/scratch/gjones39/condo_cluster/1.42/2739831/GMJ_IVECC2_G_P.csv /lustre/isaac/scratch/gjones39/condo_cluster/1.42/GMJ_IVECC2_G_P.csv

>>> COPY /lustre/isaac/scratch/gjones39/condo_cluster/1.42/2739831/GMJ_e2_G_P.csv /lustre/isaac/scratch/gjones39/condo_cluster/1.42/GMJ_e2_G_P.csv

>>> END FOREACH

>>> EXPORT j = M

>>> IF (-FILE GMJ_e2_${i}_${j}.csv)

>>> COPY /lustre/isaac/scratch/gjones39/condo_cluster/1.42/2739831/GMJ_RHS_G_M.csv /lustre/isaac/scratch/gjones39/condo_cluster/1.42/GMJ_RHS_G_M.csv

>>> COPY /lustre/isaac/scratch/gjones39/condo_cluster/1.42/2739831/GMJ_IVECW_G_M.csv /lustre/isaac/scratch/gjones39/condo_cluster/1.42/GMJ_IVECW_G_M.csv

>>> COPY /lustre/isaac/scratch/gjones39/condo_cluster/1.42/2739831/GMJ_IVECX_G_M.csv /lustre/isaac/scratch/gjones39/condo_cluster/1.42/GMJ_IVECX_G_M.csv

>>> COPY /lustre/isaac/scratch/gjones39/condo_cluster/1.42/2739831/GMJ_IVECC2_G_M.csv /lustre/isaac/scratch/gjones39/condo_cluster/1.42/GMJ_IVECC2_G_M.csv

>>> COPY /lustre/isaac/scratch/gjones39/condo_cluster/1.42/2739831/GMJ_e2_G_M.csv /lustre/isaac/scratch/gjones39/condo_cluster/1.42/GMJ_e2_G_M.csv

>>> END FOREACH

>>> END FOREACH

>>> EXPORT i = H

>>> EXPORT j = P

>>> IF (-FILE GMJ_e2_${i}_${j}.csv)

>>> COPY /lustre/isaac/scratch/gjones39/condo_cluster/1.42/2739831/GMJ_RHS_H_P.csv /lustre/isaac/scratch/gjones39/condo_cluster/1.42/GMJ_RHS_H_P.csv

>>> COPY /lustre/isaac/scratch/gjones39/condo_cluster/1.42/2739831/GMJ_IVECW_H_P.csv /lustre/isaac/scratch/gjones39/condo_cluster/1.42/GMJ_IVECW_H_P.csv

>>> COPY /lustre/isaac/scratch/gjones39/condo_cluster/1.42/2739831/GMJ_IVECX_H_P.csv /lustre/isaac/scratch/gjones39/condo_cluster/1.42/GMJ_IVECX_H_P.csv

>>> COPY /lustre/isaac/scratch/gjones39/condo_cluster/1.42/2739831/GMJ_IVECC2_H_P.csv /lustre/isaac/scratch/gjones39/condo_cluster/1.42/GMJ_IVECC2_H_P.csv

>>> COPY /lustre/isaac/scratch/gjones39/condo_cluster/1.42/2739831/GMJ_e2_H_P.csv /lustre/isaac/scratch/gjones39/condo_cluster/1.42/GMJ_e2_H_P.csv

>>> END FOREACH

>>> EXPORT j = M

>>> IF (-FILE GMJ_e2_${i}_${j}.csv)

>>> COPY /lustre/isaac/scratch/gjones39/condo_cluster/1.42/2739831/GMJ_RHS_H_M.csv /lustre/isaac/scratch/gjones39/condo_cluster/1.42/GMJ_RHS_H_M.csv

>>> COPY /lustre/isaac/scratch/gjones39/condo_cluster/1.42/2739831/GMJ_IVECW_H_M.csv /lustre/isaac/scratch/gjones39/condo_cluster/1.42/GMJ_IVECW_H_M.csv

>>> COPY /lustre/isaac/scratch/gjones39/condo_cluster/1.42/2739831/GMJ_IVECX_H_M.csv /lustre/isaac/scratch/gjones39/condo_cluster/1.42/GMJ_IVECX_H_M.csv

>>> COPY /lustre/isaac/scratch/gjones39/condo_cluster/1.42/2739831/GMJ_IVECC2_H_M.csv /lustre/isaac/scratch/gjones39/condo_cluster/1.42/GMJ_IVECC2_H_M.csv

>>> COPY /lustre/isaac/scratch/gjones39/condo_cluster/1.42/2739831/GMJ_e2_H_M.csv /lustre/isaac/scratch/gjones39/condo_cluster/1.42/GMJ_e2_H_M.csv

>>> END FOREACH

>>> END FOREACH

>>> EXPORT i = A

>>> IF (-FILE GMJ_e2_$i.csv)

>>> COPY /lustre/isaac/scratch/gjones39/condo_cluster/1.42/2739831/GMJ_RHS_A.csv /lustre/isaac/scratch/gjones39/condo_cluster/1.42/GMJ_RHS_A.csv

>>> COPY /lustre/isaac/scratch/gjones39/condo_cluster/1.42/2739831/GMJ_IVECW_A.csv /lustre/isaac/scratch/gjones39/condo_cluster/1.42/GMJ_IVECW_A.csv

>>> COPY /lustre/isaac/scratch/gjones39/condo_cluster/1.42/2739831/GMJ_IVECX_A.csv /lustre/isaac/scratch/gjones39/condo_cluster/1.42/GMJ_IVECX_A.csv

>>> COPY /lustre/isaac/scratch/gjones39/condo_cluster/1.42/2739831/GMJ_IVECC2_A.csv /lustre/isaac/scratch/gjones39/condo_cluster/1.42/GMJ_IVECC2_A.csv

>>> COPY /lustre/isaac/scratch/gjones39/condo_cluster/1.42/2739831/GMJ_e2_A.csv /lustre/isaac/scratch/gjones39/condo_cluster/1.42/GMJ_e2_A.csv

>>> END FOREACH

>>> EXPORT i = C

>>> IF (-FILE GMJ_e2_$i.csv)

>>> COPY /lustre/isaac/scratch/gjones39/condo_cluster/1.42/2739831/GMJ_RHS_C.csv /lustre/isaac/scratch/gjones39/condo_cluster/1.42/GMJ_RHS_C.csv

>>> COPY /lustre/isaac/scratch/gjones39/condo_cluster/1.42/2739831/GMJ_IVECW_C.csv /lustre/isaac/scratch/gjones39/condo_cluster/1.42/GMJ_IVECW_C.csv

>>> COPY /lustre/isaac/scratch/gjones39/condo_cluster/1.42/2739831/GMJ_IVECX_C.csv /lustre/isaac/scratch/gjones39/condo_cluster/1.42/GMJ_IVECX_C.csv

>>> COPY /lustre/isaac/scratch/gjones39/condo_cluster/1.42/2739831/GMJ_IVECC2_C.csv /lustre/isaac/scratch/gjones39/condo_cluster/1.42/GMJ_IVECC2_C.csv

>>> COPY /lustre/isaac/scratch/gjones39/condo_cluster/1.42/2739831/GMJ_e2_C.csv /lustre/isaac/scratch/gjones39/condo_cluster/1.42/GMJ_e2_C.csv

>>> END FOREACH

>>> EXPORT i = D

>>> IF (-FILE GMJ_e2_$i.csv)

>>> COPY /lustre/isaac/scratch/gjones39/condo_cluster/1.42/2739831/GMJ_RHS_D.csv /lustre/isaac/scratch/gjones39/condo_cluster/1.42/GMJ_RHS_D.csv

>>> COPY /lustre/isaac/scratch/gjones39/condo_cluster/1.42/2739831/GMJ_IVECW_D.csv /lustre/isaac/scratch/gjones39/condo_cluster/1.42/GMJ_IVECW_D.csv

>>> COPY /lustre/isaac/scratch/gjones39/condo_cluster/1.42/2739831/GMJ_IVECX_D.csv /lustre/isaac/scratch/gjones39/condo_cluster/1.42/GMJ_IVECX_D.csv

>>> COPY /lustre/isaac/scratch/gjones39/condo_cluster/1.42/2739831/GMJ_IVECC2_D.csv /lustre/isaac/scratch/gjones39/condo_cluster/1.42/GMJ_IVECC2_D.csv

>>> COPY /lustre/isaac/scratch/gjones39/condo_cluster/1.42/2739831/GMJ_e2_D.csv /lustre/isaac/scratch/gjones39/condo_cluster/1.42/GMJ_e2_D.csv

>>> END FOREACH

    Timing: Wall=2466.99 User=2446.95 System=7.94
************************************************************************************
*** WorkDir at /lustre/isaac/scratch/gjones39/condo_cluster/1.42/2739831 cleaned ***
************************************************************************************
