[Molden Format]
[N_Atoms]
                     2
[Atoms] (AU)
B1          1      5           0.00000000      0.00000000      0.00000000
B2          2      5           0.00000000      0.00000000      1.70075351
[Charge] (Mulliken)
  0.000000000000000E+000
  0.000000000000000E+000
[GTO] (AU)
   1
   s  14
  3.336021700E+04  1.039699991E-04
  4.972095200E+03  5.254399956E-04
  1.125641700E+03  2.509059979E-03
  3.164913600E+02  1.031887991E-02
  1.020072600E+02  3.636632969E-02
  3.629587300E+01  1.064607991E-01
  1.397141000E+01  2.403999880E-01
  5.741156000E+00  3.748581168E-01
  2.494268000E+00  3.100066974E-01
  1.114202000E+00  7.922455933E-02
  4.215490000E-01 -4.947589958E-03
  1.696330000E-01 -7.737119935E-03
  6.853500000E-02 -1.501079987E-03
  2.398700000E-02 -1.333299989E-04
   s  14
  3.336021700E+04 -2.030000008E-05
  4.972095200E+03 -1.025700004E-04
  1.125641700E+03 -4.911300020E-04
  3.164913600E+02 -2.026570008E-03
  1.020072600E+02 -7.261010030E-03
  3.629587300E+01 -2.197722009E-02
  1.397141000E+01 -5.408428022E-02
  5.741156000E+00 -1.022402604E-01
  2.494268000E+00 -1.423595206E-01
  1.114202000E+00 -4.658690019E-02
  4.215490000E-01  3.799402916E-01
  1.696330000E-01  5.890463624E-01
  6.853500000E-02  1.749075107E-01
  2.398700000E-02 -1.142030005E-03
   p   9
  5.500000000E+01  1.229800005E-03
  1.336610100E+01  8.827380035E-03
  4.135394000E+00  3.843340015E-02
  1.481256000E+00  1.150031805E-01
  6.021360000E-01  2.733674011E-01
  2.556360000E-01  4.061972116E-01
  1.111510000E-01  3.014967912E-01
  4.764800000E-02  7.684809030E-02
  1.667700000E-02 -8.170000032E-06
 
   2
   s  14
  3.336021700E+04  1.039699991E-04
  4.972095200E+03  5.254399956E-04
  1.125641700E+03  2.509059979E-03
  3.164913600E+02  1.031887991E-02
  1.020072600E+02  3.636632969E-02
  3.629587300E+01  1.064607991E-01
  1.397141000E+01  2.403999880E-01
  5.741156000E+00  3.748581168E-01
  2.494268000E+00  3.100066974E-01
  1.114202000E+00  7.922455933E-02
  4.215490000E-01 -4.947589958E-03
  1.696330000E-01 -7.737119935E-03
  6.853500000E-02 -1.501079987E-03
  2.398700000E-02 -1.333299989E-04
   s  14
  3.336021700E+04 -2.030000008E-05
  4.972095200E+03 -1.025700004E-04
  1.125641700E+03 -4.911300020E-04
  3.164913600E+02 -2.026570008E-03
  1.020072600E+02 -7.261010030E-03
  3.629587300E+01 -2.197722009E-02
  1.397141000E+01 -5.408428022E-02
  5.741156000E+00 -1.022402604E-01
  2.494268000E+00 -1.423595206E-01
  1.114202000E+00 -4.658690019E-02
  4.215490000E-01  3.799402916E-01
  1.696330000E-01  5.890463624E-01
  6.853500000E-02  1.749075107E-01
  2.398700000E-02 -1.142030005E-03
   p   9
  5.500000000E+01  1.229800005E-03
  1.336610100E+01  8.827380035E-03
  4.135394000E+00  3.843340015E-02
  1.481256000E+00  1.150031805E-01
  6.021360000E-01  2.733674011E-01
  2.556360000E-01  4.061972116E-01
  1.111510000E-01  3.014967912E-01
  4.764800000E-02  7.684809030E-02
  1.667700000E-02 -8.170000032E-06
 
[MO]
Sym=     1a  
Ene=    -7.8008
Spin= Alpha
Occup=    2.00000
   1         0.70076640
   2         0.00798687
   3         0.00000000
   4         0.00000000
   5         0.00706305
   6         0.70076640
   7         0.00798687
   8        -0.00000000
   9        -0.00000000
  10        -0.00706305
Sym=     2a  
Ene=    -7.6543
Spin= Alpha
Occup=    2.00000
   1        -0.70762902
   2         0.00700387
   3        -0.00000000
   4        -0.00000000
   5         0.00708841
   6         0.70762902
   7        -0.00700387
   8         0.00000000
   9         0.00000000
  10         0.00708841
Sym=     3a  
Ene=    -0.8867
Spin= Alpha
Occup=    2.00000
   1        -0.11662961
   2         0.51048926
   3         0.00000000
   4        -0.00000000
   5         0.10451075
   6        -0.11662961
   7         0.51048926
   8         0.00000000
   9         0.00000000
  10        -0.10451075
Sym=     4a  
Ene=    -0.5186
Spin= Alpha
Occup=    2.00000
   1        -0.00000000
   2        -0.00000000
   3         0.29541003
   4         0.46093246
   5        -0.00000000
   6         0.00000000
   7         0.00000000
   8         0.29541003
   9         0.46093246
  10        -0.00000000
Sym=     5a  
Ene=    -0.5186
Spin= Alpha
Occup=    2.00000
   1        -0.00000000
   2        -0.00000000
   3         0.46093246
   4        -0.29541003
   5         0.00000000
   6         0.00000000
   7         0.00000000
   8         0.46093246
   9        -0.29541003
  10         0.00000000
Sym=     6a  
Ene=    -0.4678
Spin= Alpha
Occup=    0.00000
   1         0.06766925
   2        -0.36377969
   3        -0.00000000
   4         0.00000000
   5         0.49887620
   6        -0.06766925
   7         0.36377969
   8        -0.00000000
   9         0.00000000
  10         0.49887620
Sym=     7a  
Ene=    -0.1886
Spin= Alpha
Occup=    0.00000
   1         0.16791459
   2         0.28836587
   3         0.00000000
   4        -0.00000000
   5        -0.87800248
   6         0.16791459
   7         0.28836587
   8        -0.00000000
   9         0.00000000
  10         0.87800248
Sym=     8a  
Ene=    -0.1032
Spin= Alpha
Occup=    0.00000
   1        -0.00000000
   2        -0.00000000
   3         0.72414271
   4        -0.99121628
   5        -0.00000000
   6         0.00000000
   7         0.00000000
   8        -0.72414271
   9         0.99121628
  10        -0.00000000
Sym=     9a  
Ene=    -0.1032
Spin= Alpha
Occup=    0.00000
   1        -0.00000000
   2        -0.00000000
   3        -0.99121628
   4        -0.72414271
   5        -0.00000000
   6         0.00000000
   7         0.00000000
   8         0.99121628
   9         0.72414271
  10        -0.00000000
Sym=    10a  
Ene=    -0.0052
Spin= Alpha
Occup=    0.00000
   1         1.59380356
   2         5.96110163
   3         0.00000000
   4        -0.00000000
   5         2.72418493
   6        -1.59380356
   7        -5.96110163
   8         0.00000000
   9        -0.00000000
  10         2.72418493
