[Molden Format]
[N_Atoms]
                     2
[Atoms] (AU)
B1          1      5           0.00000000      0.00000000      0.00000000
B2          2      5           0.00000000      0.00000000      1.70075351
[Charge] (Mulliken)
  8.260059303211165E-014
 -1.003641614261142E-013
[GTO] (AU)
   1
   s  14
  3.336021700E+04  1.039699991E-04
  4.972095200E+03  5.254399956E-04
  1.125641700E+03  2.509059979E-03
  3.164913600E+02  1.031887991E-02
  1.020072600E+02  3.636632969E-02
  3.629587300E+01  1.064607991E-01
  1.397141000E+01  2.403999880E-01
  5.741156000E+00  3.748581168E-01
  2.494268000E+00  3.100066974E-01
  1.114202000E+00  7.922455933E-02
  4.215490000E-01 -4.947589958E-03
  1.696330000E-01 -7.737119935E-03
  6.853500000E-02 -1.501079987E-03
  2.398700000E-02 -1.333299989E-04
   s  14
  3.336021700E+04 -2.030000008E-05
  4.972095200E+03 -1.025700004E-04
  1.125641700E+03 -4.911300020E-04
  3.164913600E+02 -2.026570008E-03
  1.020072600E+02 -7.261010030E-03
  3.629587300E+01 -2.197722009E-02
  1.397141000E+01 -5.408428022E-02
  5.741156000E+00 -1.022402604E-01
  2.494268000E+00 -1.423595206E-01
  1.114202000E+00 -4.658690019E-02
  4.215490000E-01  3.799402916E-01
  1.696330000E-01  5.890463624E-01
  6.853500000E-02  1.749075107E-01
  2.398700000E-02 -1.142030005E-03
   p   9
  5.500000000E+01  1.229800005E-03
  1.336610100E+01  8.827380035E-03
  4.135394000E+00  3.843340015E-02
  1.481256000E+00  1.150031805E-01
  6.021360000E-01  2.733674011E-01
  2.556360000E-01  4.061972116E-01
  1.111510000E-01  3.014967912E-01
  4.764800000E-02  7.684809030E-02
  1.667700000E-02 -8.170000032E-06
 
   2
   s  14
  3.336021700E+04  1.039699991E-04
  4.972095200E+03  5.254399956E-04
  1.125641700E+03  2.509059979E-03
  3.164913600E+02  1.031887991E-02
  1.020072600E+02  3.636632969E-02
  3.629587300E+01  1.064607991E-01
  1.397141000E+01  2.403999880E-01
  5.741156000E+00  3.748581168E-01
  2.494268000E+00  3.100066974E-01
  1.114202000E+00  7.922455933E-02
  4.215490000E-01 -4.947589958E-03
  1.696330000E-01 -7.737119935E-03
  6.853500000E-02 -1.501079987E-03
  2.398700000E-02 -1.333299989E-04
   s  14
  3.336021700E+04 -2.030000008E-05
  4.972095200E+03 -1.025700004E-04
  1.125641700E+03 -4.911300020E-04
  3.164913600E+02 -2.026570008E-03
  1.020072600E+02 -7.261010030E-03
  3.629587300E+01 -2.197722009E-02
  1.397141000E+01 -5.408428022E-02
  5.741156000E+00 -1.022402604E-01
  2.494268000E+00 -1.423595206E-01
  1.114202000E+00 -4.658690019E-02
  4.215490000E-01  3.799402916E-01
  1.696330000E-01  5.890463624E-01
  6.853500000E-02  1.749075107E-01
  2.398700000E-02 -1.142030005E-03
   p   9
  5.500000000E+01  1.229800005E-03
  1.336610100E+01  8.827380035E-03
  4.135394000E+00  3.843340015E-02
  1.481256000E+00  1.150031805E-01
  6.021360000E-01  2.733674011E-01
  2.556360000E-01  4.061972116E-01
  1.111510000E-01  3.014967912E-01
  4.764800000E-02  7.684809030E-02
  1.667700000E-02 -8.170000032E-06
 
[MO]
Sym=     1a  
Ene=    -7.9792
Spin= Alpha
Occup=    2.00000
   1         0.70005824
   2         0.00995411
   3         0.00000000
   4         0.00000000
   5         0.00847299
   6         0.70005824
   7         0.00995411
   8        -0.00000000
   9        -0.00000000
  10        -0.00847299
Sym=     2a  
Ene=    -7.8915
Spin= Alpha
Occup=    2.00000
   1        -0.71376515
   2        -0.01598661
   3         0.00000000
   4        -0.00000000
   5        -0.00339595
   6         0.71376515
   7         0.01598661
   8        -0.00000000
   9         0.00000000
  10        -0.00339595
Sym=     3a  
Ene=    -0.7899
Spin= Alpha
Occup=    2.00000
   1        -0.15246870
   2         0.43860634
   3         0.00000000
   4        -0.00000000
   5         0.28631393
   6        -0.15246870
   7         0.43860634
   8        -0.00000000
   9         0.00000000
  10        -0.28631393
Sym=     4a  
Ene=    -0.4690
Spin= Alpha
Occup=    2.00000
   1         0.00000000
   2        -0.00000000
   3        -0.06888581
   4         0.54312113
   5         0.00000000
   6        -0.00000000
   7         0.00000000
   8        -0.06888581
   9         0.54312113
  10         0.00000000
Sym=     5a  
Ene=    -0.4655
Spin= Alpha
Occup=    1.97875
   1         0.00000000
   2         0.00000000
   3         0.54312113
   4         0.06888581
   5        -0.00000000
   6        -0.00000000
   7        -0.00000000
   8         0.54312113
   9         0.06888581
  10        -0.00000000
Sym=     6a  
Ene=    -0.0004
Spin= Alpha
Occup=    0.02125
   1        -0.11933363
   2        -1.06023486
   3         0.00000000
   4        -0.00000000
   5         0.17601071
   6         0.11933363
   7         1.06023486
   8         0.00000000
   9        -0.00000000
  10         0.17601071
Sym=     7a  
Ene=     0.0214
Spin= Alpha
Occup=    0.00000
   1         0.13979657
   2         0.38902872
   3        -0.00000000
   4        -0.00000000
   5        -0.83654843
   6         0.13979657
   7         0.38902872
   8        -0.00000000
   9         0.00000000
  10         0.83654843
Sym=     8a  
Ene=     0.3741
Spin= Alpha
Occup=    0.00000
   1        -0.00000000
   2        -0.00000000
   3         0.15445744
   4        -1.21779936
   5         0.00000000
   6         0.00000000
   7         0.00000000
   8        -0.15445744
   9         1.21779936
  10        -0.00000000
Sym=     9a  
Ene=     0.3743
Spin= Alpha
Occup=    0.00000
   1        -0.00000000
   2         0.00000000
   3        -1.21779936
   4        -0.15445744
   5        -0.00000000
   6         0.00000000
   7        -0.00000000
   8         1.21779936
   9         0.15445744
  10        -0.00000000
Sym=    10a  
Ene=     2.0278
Spin= Alpha
Occup=    0.00000
   1        -1.58802599
   2        -5.87730924
   3         0.00000000
   4         0.00000000
   5        -2.76389579
   6         1.58802599
   7         5.87730924
   8        -0.00000000
   9         0.00000000
  10        -2.76389579
