[Molden Format]
[N_Atoms]
                     2
[Atoms] (AU)
B1          1      5           0.00000000      0.00000000      0.00000000
B2          2      5           0.00000000      0.00000000      1.70075351
[Charge] (Mulliken)
  7.371880883511039E-013
 -7.380762667708041E-013
[GTO] (AU)
   1
   s  14
  3.336021700E+04  1.039699991E-04
  4.972095200E+03  5.254399956E-04
  1.125641700E+03  2.509059979E-03
  3.164913600E+02  1.031887991E-02
  1.020072600E+02  3.636632969E-02
  3.629587300E+01  1.064607991E-01
  1.397141000E+01  2.403999880E-01
  5.741156000E+00  3.748581168E-01
  2.494268000E+00  3.100066974E-01
  1.114202000E+00  7.922455933E-02
  4.215490000E-01 -4.947589958E-03
  1.696330000E-01 -7.737119935E-03
  6.853500000E-02 -1.501079987E-03
  2.398700000E-02 -1.333299989E-04
   s  14
  3.336021700E+04 -2.030000008E-05
  4.972095200E+03 -1.025700004E-04
  1.125641700E+03 -4.911300020E-04
  3.164913600E+02 -2.026570008E-03
  1.020072600E+02 -7.261010030E-03
  3.629587300E+01 -2.197722009E-02
  1.397141000E+01 -5.408428022E-02
  5.741156000E+00 -1.022402604E-01
  2.494268000E+00 -1.423595206E-01
  1.114202000E+00 -4.658690019E-02
  4.215490000E-01  3.799402916E-01
  1.696330000E-01  5.890463624E-01
  6.853500000E-02  1.749075107E-01
  2.398700000E-02 -1.142030005E-03
   p   9
  5.500000000E+01  1.229800005E-03
  1.336610100E+01  8.827380035E-03
  4.135394000E+00  3.843340015E-02
  1.481256000E+00  1.150031805E-01
  6.021360000E-01  2.733674011E-01
  2.556360000E-01  4.061972116E-01
  1.111510000E-01  3.014967912E-01
  4.764800000E-02  7.684809030E-02
  1.667700000E-02 -8.170000032E-06
 
   2
   s  14
  3.336021700E+04  1.039699991E-04
  4.972095200E+03  5.254399956E-04
  1.125641700E+03  2.509059979E-03
  3.164913600E+02  1.031887991E-02
  1.020072600E+02  3.636632969E-02
  3.629587300E+01  1.064607991E-01
  1.397141000E+01  2.403999880E-01
  5.741156000E+00  3.748581168E-01
  2.494268000E+00  3.100066974E-01
  1.114202000E+00  7.922455933E-02
  4.215490000E-01 -4.947589958E-03
  1.696330000E-01 -7.737119935E-03
  6.853500000E-02 -1.501079987E-03
  2.398700000E-02 -1.333299989E-04
   s  14
  3.336021700E+04 -2.030000008E-05
  4.972095200E+03 -1.025700004E-04
  1.125641700E+03 -4.911300020E-04
  3.164913600E+02 -2.026570008E-03
  1.020072600E+02 -7.261010030E-03
  3.629587300E+01 -2.197722009E-02
  1.397141000E+01 -5.408428022E-02
  5.741156000E+00 -1.022402604E-01
  2.494268000E+00 -1.423595206E-01
  1.114202000E+00 -4.658690019E-02
  4.215490000E-01  3.799402916E-01
  1.696330000E-01  5.890463624E-01
  6.853500000E-02  1.749075107E-01
  2.398700000E-02 -1.142030005E-03
   p   9
  5.500000000E+01  1.229800005E-03
  1.336610100E+01  8.827380035E-03
  4.135394000E+00  3.843340015E-02
  1.481256000E+00  1.150031805E-01
  6.021360000E-01  2.733674011E-01
  2.556360000E-01  4.061972116E-01
  1.111510000E-01  3.014967912E-01
  4.764800000E-02  7.684809030E-02
  1.667700000E-02 -8.170000032E-06
 
[MO]
Sym=     1a  
Ene=    -7.9787
Spin= Alpha
Occup=    1.00000
   1         0.70006305
   2         0.00996670
   3         0.00000000
   4         0.00000000
   5         0.00844478
   6         0.70006305
   7         0.00996670
   8        -0.00000000
   9        -0.00000000
  10        -0.00844478
Sym=     1a  
Ene=    -7.9787
Spin= Beta
Occup=    1.00000
   1         0.70006305
   2         0.00996670
   3         0.00000000
   4         0.00000000
   5         0.00844478
   6         0.70006305
   7         0.00996670
   8        -0.00000000
   9        -0.00000000
  10        -0.00844478
Sym=     2a  
Ene=    -7.8910
Spin= Alpha
Occup=    1.00000
   1        -0.71373278
   2        -0.01591536
   3         0.00000000
   4         0.00000000
   5        -0.00330950
   6         0.71373278
   7         0.01591536
   8        -0.00000000
   9         0.00000000
  10        -0.00330950
Sym=     2a  
Ene=    -7.8910
Spin= Beta
Occup=    1.00000
   1        -0.71373278
   2        -0.01591536
   3         0.00000000
   4         0.00000000
   5        -0.00330950
   6         0.71373278
   7         0.01591536
   8        -0.00000000
   9         0.00000000
  10        -0.00330950
Sym=     3a  
Ene=    -0.7893
Spin= Alpha
Occup=    1.00000
   1        -0.15243749
   2         0.43869135
   3        -0.00000000
   4         0.00000000
   5         0.28613112
   6        -0.15243749
   7         0.43869135
   8         0.00000000
   9         0.00000000
  10        -0.28613112
Sym=     3a  
Ene=    -0.7893
Spin= Beta
Occup=    1.00000
   1        -0.15243749
   2         0.43869135
   3        -0.00000000
   4         0.00000000
   5         0.28613112
   6        -0.15243749
   7         0.43869135
   8         0.00000000
   9         0.00000000
  10        -0.28613112
Sym=     4a  
Ene=    -0.4686
Spin= Alpha
Occup=    1.00000
   1        -0.00000000
   2        -0.00000000
   3         0.44758341
   4         0.31526958
   5         0.00000000
   6        -0.00000000
   7        -0.00000000
   8         0.44758341
   9         0.31526958
  10        -0.00000000
Sym=     4a  
Ene=    -0.4686
Spin= Beta
Occup=    1.00000
   1        -0.00000000
   2        -0.00000000
   3         0.44758341
   4         0.31526958
   5         0.00000000
   6        -0.00000000
   7        -0.00000000
   8         0.44758341
   9         0.31526958
  10        -0.00000000
Sym=     5a  
Ene=    -0.4686
Spin= Alpha
Occup=    1.00000
   1         0.00000000
   2        -0.00000000
   3        -0.31526958
   4         0.44758341
   5         0.00000000
   6        -0.00000000
   7         0.00000000
   8        -0.31526958
   9         0.44758341
  10         0.00000000
Sym=     5a  
Ene=    -0.4686
Spin= Beta
Occup=    1.00000
   1         0.00000000
   2        -0.00000000
   3        -0.31526958
   4         0.44758341
   5         0.00000000
   6        -0.00000000
   7         0.00000000
   8        -0.31526958
   9         0.44758341
  10         0.00000000
Sym=     6a  
Ene=    -0.0559
Spin= Alpha
Occup=    0.00000
   1         0.04244364
   2        -0.45851522
   3         0.00000000
   4         0.00000000
   5         0.45549790
   6        -0.04244364
   7         0.45851522
   8         0.00000000
   9        -0.00000000
  10         0.45549790
Sym=     6a  
Ene=    -0.0559
Spin= Beta
Occup=    0.00000
   1         0.04244364
   2        -0.45851522
   3         0.00000000
   4         0.00000000
   5         0.45549790
   6        -0.04244364
   7         0.45851522
   8         0.00000000
   9        -0.00000000
  10         0.45549790
Sym=     7a  
Ene=     0.0220
Spin= Alpha
Occup=    0.00000
   1         0.13980650
   2         0.38893253
   3         0.00000000
   4        -0.00000000
   5        -0.83661126
   6         0.13980650
   7         0.38893253
   8         0.00000000
   9         0.00000000
  10         0.83661126
Sym=     7a  
Ene=     0.0220
Spin= Beta
Occup=    0.00000
   1         0.13980650
   2         0.38893253
   3         0.00000000
   4        -0.00000000
   5        -0.83661126
   6         0.13980650
   7         0.38893253
   8         0.00000000
   9         0.00000000
  10         0.83661126
Sym=     8a  
Ene=     0.3744
Spin= Alpha
Occup=    0.00000
   1         0.00000000
   2        -0.00000000
   3        -1.22746321
   4         0.01504781
   5        -0.00000000
   6         0.00000000
   7         0.00000000
   8         1.22746321
   9        -0.01504781
  10         0.00000000
Sym=     8a  
Ene=     0.3744
Spin= Beta
Occup=    0.00000
   1         0.00000000
   2        -0.00000000
   3        -1.22746321
   4         0.01504781
   5        -0.00000000
   6         0.00000000
   7         0.00000000
   8         1.22746321
   9        -0.01504781
  10         0.00000000
Sym=     9a  
Ene=     0.3744
Spin= Alpha
Occup=    0.00000
   1        -0.00000000
   2        -0.00000000
   3        -0.01504781
   4        -1.22746321
   5         0.00000000
   6         0.00000000
   7         0.00000000
   8         0.01504781
   9         1.22746321
  10        -0.00000000
Sym=     9a  
Ene=     0.3744
Spin= Beta
Occup=    0.00000
   1        -0.00000000
   2        -0.00000000
   3        -0.01504781
   4        -1.22746321
   5         0.00000000
   6         0.00000000
   7         0.00000000
   8         0.01504781
   9         1.22746321
  10        -0.00000000
Sym=    10a  
Ene=     2.0497
Spin= Alpha
Occup=    0.00000
   1         1.59195220
   2         5.95454682
   3         0.00000000
   4        -0.00000000
   5         2.73177999
   6        -1.59195220
   7        -5.95454682
   8         0.00000000
   9         0.00000000
  10         2.73177999
Sym=    10a  
Ene=     2.0497
Spin= Beta
Occup=    0.00000
   1         1.59195220
   2         5.95454682
   3         0.00000000
   4        -0.00000000
   5         2.73177999
   6        -1.59195220
   7        -5.95454682
   8         0.00000000
   9         0.00000000
  10         2.73177999
