[Molden Format]
[N_Atoms]
                     2
[Atoms] (AU)
O1          1      8           0.00000000      0.00000000      0.00000000
O2          2      8           0.00000000      0.00000000      3.21253441
[Charge] (Mulliken)
   1.00077211888218     
  0.999227881117799     
[GTO] (AU)
   1
   s  14
  1.053749500E+05  1.238600013E-04
  1.567924000E+04  5.120100053E-04
  3.534544700E+03  2.152910022E-03
  9.873651600E+02  8.528440089E-03
  3.159787500E+02  3.018049031E-02
  1.116542800E+02  9.099702095E-02
  4.269945100E+01  2.177936423E-01
  1.739559600E+01  3.686245738E-01
  7.438309000E+00  3.366707335E-01
  3.222862000E+00  9.657630101E-02
  1.253877000E+00  2.144520022E-03
  4.951550000E-01  1.194350012E-03
  1.916650000E-01  5.390200056E-04
  6.708300000E-02  2.103400022E-04
   s  14
  1.053749500E+05 -2.815000008E-05
  1.567924000E+04 -1.163000003E-04
  3.534544700E+03 -4.909200013E-04
  9.873651600E+02 -1.946160005E-03
  3.159787500E+02 -7.005300019E-03
  1.116542800E+02 -2.167814006E-02
  4.269945100E+01 -5.641213015E-02
  1.739559600E+01 -1.127053003E-01
  7.438309000E+00 -1.589119704E-01
  3.222862000E+00 -3.355083009E-02
  1.253877000E+00  3.531902810E-01
  4.951550000E-01  5.534199315E-01
  1.916650000E-01  2.301839106E-01
  6.708300000E-02  1.127267003E-02
   p   9
  2.000000000E+02  9.173000030E-04
  4.653336700E+01  7.377140024E-03
  1.462180900E+01  3.483515011E-02
  5.313064000E+00  1.144397004E-01
  2.102525000E+00  2.554966408E-01
  8.502230000E-01  3.722557412E-01
  3.375970000E-01  3.323314911E-01
  1.288920000E-01  1.400847905E-01
  4.511200000E-02  2.395784008E-02
 
   2
   s  14
  1.053749500E+05  1.238600013E-04
  1.567924000E+04  5.120100053E-04
  3.534544700E+03  2.152910022E-03
  9.873651600E+02  8.528440089E-03
  3.159787500E+02  3.018049031E-02
  1.116542800E+02  9.099702095E-02
  4.269945100E+01  2.177936423E-01
  1.739559600E+01  3.686245738E-01
  7.438309000E+00  3.366707335E-01
  3.222862000E+00  9.657630101E-02
  1.253877000E+00  2.144520022E-03
  4.951550000E-01  1.194350012E-03
  1.916650000E-01  5.390200056E-04
  6.708300000E-02  2.103400022E-04
   s  14
  1.053749500E+05 -2.815000008E-05
  1.567924000E+04 -1.163000003E-04
  3.534544700E+03 -4.909200013E-04
  9.873651600E+02 -1.946160005E-03
  3.159787500E+02 -7.005300019E-03
  1.116542800E+02 -2.167814006E-02
  4.269945100E+01 -5.641213015E-02
  1.739559600E+01 -1.127053003E-01
  7.438309000E+00 -1.589119704E-01
  3.222862000E+00 -3.355083009E-02
  1.253877000E+00  3.531902810E-01
  4.951550000E-01  5.534199315E-01
  1.916650000E-01  2.301839106E-01
  6.708300000E-02  1.127267003E-02
   p   9
  2.000000000E+02  9.173000030E-04
  4.653336700E+01  7.377140024E-03
  1.462180900E+01  3.483515011E-02
  5.313064000E+00  1.144397004E-01
  2.102525000E+00  2.554966408E-01
  8.502230000E-01  3.722557412E-01
  3.375970000E-01  3.323314911E-01
  1.288920000E-01  1.400847905E-01
  4.511200000E-02  2.395784008E-02
 
[MO]
Sym=     1a  
Ene=   -22.1460
Spin= Alpha
Occup=    2.00000
   1         0.08359509
   2        -0.00122756
   3         0.00000002
   4         0.00000002
   5         0.00026741
   6         0.99649611
   7        -0.00196683
   8        -0.00000000
   9        -0.00000000
  10        -0.00070847
Sym=     2a  
Ene=   -22.1440
Spin= Alpha
Occup=    2.00000
   1        -0.99634846
   2         0.01472682
   3        -0.00000013
   4        -0.00000021
   5        -0.00221735
   6         0.08359260
   7        -0.00122502
   8         0.00000005
   9         0.00000009
  10         0.00180540
Sym=     3a  
Ene=    -2.3177
Spin= Alpha
Occup=    2.00000
   1         0.00822631
   2        -0.01232296
   3        -0.00000344
   4        -0.00000544
   5        -0.10451146
   6         0.00018127
   7        -0.96314090
   8         0.00000163
   9         0.00000259
  10         0.10937778
Sym=     4a  
Ene=    -1.6404
Spin= Alpha
Occup=    2.00000
   1         0.01017792
   2        -0.10248418
   3        -0.00002222
   4        -0.00003517
   5        -0.63404669
   6         0.01384089
   7         0.30890361
   8         0.00007404
   9         0.00011735
  10         0.63094319
Sym=     5a  
Ene=    -1.6048
Spin= Alpha
Occup=    2.00000
   1         0.00000000
   2         0.00000000
   3         0.84008570
   4        -0.53009944
   5        -0.00000002
   6         0.00000000
   7         0.00000001
   8         0.04369152
   9        -0.02756110
  10         0.00000001
Sym=     6a  
Ene=    -1.6047
Spin= Alpha
Occup=    2.00000
   1        -0.00000102
   2         0.00001211
   3         0.02550323
   4         0.04043027
   5         0.00010390
   6        -0.00000221
   7        -0.00004271
   8         0.53041301
   9         0.84058260
  10        -0.00006561
Sym=     7a  
Ene=    -2.2077
Spin= Alpha
Occup=    1.97246
   1        -0.01813673
   2        -1.01032785
   3         0.00000726
   4         0.00001148
   5         0.14033010
   6         0.00394147
   7         0.09145669
   8        -0.00000418
   9        -0.00000662
  10        -0.14716376
Sym=     8a  
Ene=    -0.0003
Spin= Alpha
Occup=    0.02754
   1         0.00000083
   2         0.00000625
   3        -0.53589986
   4        -0.84927736
   5         0.00009918
   6        -0.00000197
   7        -0.00002248
   8         0.08062951
   9         0.12777912
  10         0.00003349
Sym=     9a  
Ene=    -1.0093
Spin= Alpha
Occup=    0.00000
   1         0.01677091
   2         0.18671152
   3         0.00004312
   4         0.00006832
   5         0.81288703
   6        -0.01674817
   7        -0.18725726
   8        -0.00001899
   9        -0.00003000
  10         0.81345372
Sym=    10a  
Ene=    -0.9980
Spin= Alpha
Occup=    0.00000
   1         0.00000000
   2         0.00000001
   3        -0.13100635
   4         0.08266591
   5         0.00000004
   6        -0.00000000
   7        -0.00000001
   8         0.84911583
   9        -0.53579798
  10         0.00000004
