   This run of MOLCAS is using the pymolcas driver

                             OPE
                             OPE          NMOL  CASOP  ENMOLC A   SO
                 OPE        NMOLC        AS  OP EN  MO LC     AS  OP
                OPENM       OL CA        SO  PE NM  OL CA     SOP EN
                OP EN      MO   LC       AS  OP ENMOL  CASO   PENMOL
                OP  EN     MO   LC       AS  OP EN     MO     LC ASO
               OP   E  NMOL  C  AS       OP  EN MO     LC     AS  OP
               OP  E   NMO   LC AS        OPEN  MO     LCASOP EN   M
               O  PEN   MO  LCA  SO
            OPE   NMO   L   CAS    OP
        OPENMOL  CASOP     ENMOL   CASOPE
     OPENMOLCA   SOPENMOLCASOPEN   MOLCASOPE
    OPENMOLCAS   OP           EN   MOL    CAS
    OPENMOLCAS       OP  ENM        O     LCA
    OPENMOLCAS    OPEN  MOLCASO     P  E  NMO
    OPENMOLCAS     OP               E  N  MOL
    OPENMOLCA   SO           PENM   O  L  CAS    OPEN    MO    LCAS
    OPENMOLCA   SOP           ENM   O  L  CAS   OP  EN  MOLC  AS   O
    OPENMOLCA   SOPE           NM      O  LCA   S      OP  EN MO
    OPENMOLC                AS         O  PEN   M      OL  CA  SOPE
    OPENMO        LCASOPE  NMOL        C  ASO   P      ENMOLC     AS
    OPE     NMO      LCA  SO     P     E   NM   OL  CA SO  PE N   MO
          OPENMOLCA            SOPE   NMO        LCAS  O    P  ENMO
     OPENMOLCASOPENMOLCASOPENMOLCASOPENMOLCA
        OPENMOLCASOPENMOLCASOPENMOLCASOPE
            OPENMOLCASOPENMOLCASOPENM
               OPENMOLCASOPENMOLCA        version: 24.02
                   OPENMOLCASO
                       OPE                tag: 126-g611b04c8f

 OpenMolcas is free software; you can redistribute it and/or modify it
 under the terms of the GNU Lesser General Public License version 2.1.
 OpenMolcas is distributed in the hope that it will be useful, but it
 is provided "as is" and without any express or implied warranties.
 For more details see the full text of the license in the file
 LICENSE or in <http://www.gnu.org/licenses/>.

                 Copyright (C) The OpenMolcas Authors
           For the author list and the recommended citation,
                   consult the file CONTRIBUTORS.md

           *************************************************
           * pymolcas version py2.28                       *
           *   build c4a6d18ded8cb6cad61d2372a9abd97c      *
           *   (after the EMIL interpreter by V. Veryazov) *
           *************************************************

configuration info
------------------
Host name: debian (Linux)
C Compiler ID: GNU
C flags: -std=gnu99
Fortran Compiler ID: Intel
Fortran flags: -fpp -i8 -heap-arrays
Definitions: _MOLCAS_;_I8_;_LINUX_
Parallel: OFF (GA=OFF)


   -----------------------------------------------------------------
  |
  |              Project: 1.70
  |       Submitted from: /home/grierjones/DDCASPT2/delta_ML/OO/1.70
  |         Scratch area: /tmp/1.70
  |      Save outputs to: /home/grierjones/DDCASPT2/delta_ML/OO/1.70
  |               Molcas: /usr/local
  |
  | Scratch area is empty
  |
  |       MOLCAS_DRIVER = /usr/local/pymolcas
  | MOLCAS_KEEP_WORKDIR = NO
  |  MOLCAS_NEW_WORKDIR = YES
  |       MOLCAS_NPROCS = 1
  |       MOLCAS_SOURCE = /usr/local
  |    MOLCAS_STRUCTURE = 0
  |
   -----------------------------------------------------------------

++ ---------   Input file   ---------

&GATEWAY
coord=1.70.xyz
Basis = ANO-RCC-MB
Group = nosymm
End of Input

&SEWARD
End of Input

&SCF
UHF

&MBPT2
Frozen
0

&RASSCF
Title= RASSCF
FileOrb
/home/grierjones/DDCASPT2/delta_ML/OO/1.60/1.60.RasOrb

NACTEL
2 0 0
Inactive
7
RAS2
2
Symmetry
1
Spin
1
orblisting
all
ITERation
200 100
CIMX
200
SDAV
500

&CASPT2
Imaginary Shift
0.0
Frozen
0

-- ----------------------------------

--- Start Module: gateway at Thu Apr 25 14:07:20 2024 ---
 
()()()()()()()()()()()()()()()()()()()()()()()()()()()()()()()()()()()()()()()()()()()()()()()()()()

                                              &GATEWAY

                                   only a single process is used
                       available to each process: 2.0 GB of memory, 1 thread?
                                            pid: 117154
()()()()()()()()()()()()()()()()()()()()()()()()()()()()()()()()()()()()()()()()()()()()()()()()()()
 
 
++    Symmetry information:
      ---------------------
 
                    Character Table for C1 
 
                             E  
                    a        1  x, y, xy, Rz, z, xz, Ry, yz, Rx, I
--
 
 
++    Basis set information:
      ----------------------
 
 
      Basis set label: O.ANO-RCC...2S1P.
 
      Electronic valence basis set:
      ------------------
      Associated Effective Charge   8.000000 au
      Associated Actual Charge      8.000000 au
      Nuclear Model: Point charge
 
      Shell  nPrim  nBasis  Cartesian Spherical Contaminant
         s      14       2        X                  
         p       9       1        X                  
--
 
 
++    Molecular structure info:
      -------------------------
 
                    ************************************************ 
                    **** Cartesian Coordinates / Bohr, Angstrom **** 
                    ************************************************ 
 
     Center  Label                x              y              z                     x              y              z
        1      O1               0.000000       0.000000       0.000000              0.000000       0.000000       0.000000
        2      O2               0.000000       0.000000       3.212534              0.000000       0.000000       1.700000
--
 
 
            Nuclear Potential Energy             19.92196559 au
 
--- Stop Module: gateway at Thu Apr 25 14:07:21 2024 /rc=_RC_ALL_IS_WELL_ ---
*** files: xmldump
    saved to directory /home/grierjones/DDCASPT2/delta_ML/OO/1.70

--- Start Module: seward at Thu Apr 25 14:07:21 2024 ---
 
()()()()()()()()()()()()()()()()()()()()()()()()()()()()()()()()()()()()()()()()()()()()()()()()()()

                                              &SEWARD

                                   only a single process is used
                       available to each process: 2.0 GB of memory, 1 thread?
                                            pid: 117157
()()()()()()()()()()()()()()()()()()()()()()()()()()()()()()()()()()()()()()()()()()()()()()()()()()
 
               SEWARD will generate:
                  Multipole Moment integrals up to order  2
                  Kinetic Energy integrals
                  Nuclear Attraction integrals (point charge)
                  One-Electron Hamiltonian integrals
                  Velocity integrals
                  Relativistic Douglas-Kroll-Hess integrals:
                    - Parametrization         : EXP
                    - DKH order of Hamiltonian: 2
                    - DKH order of Properties : 0
                         - multipole moment operators
                         - electric potential operators
                         - contact operators
                  Orbital angular momentum around ( 0.0000  0.0000  1.6063 )
                  Velocity quadrupole around ( 0.0000  0.0000  1.6063 )
                  Atomic mean-field integrals
                  Two-Electron Repulsion integrals
 
                   Integrals are discarded if absolute value <: 1.00E-14
                   Integral cutoff threshold is set to       <: 1.00E-16
 
            Nuclear Potential Energy             19.92196559 au
 
 
      Basis set specifications :
      Symmetry species         a  
      Basis functions           10
 
 
      Input file to MOLDEN was generated!
 
--- Stop Module: seward at Thu Apr 25 14:07:21 2024 /rc=_RC_ALL_IS_WELL_ ---
*** files: 1.70.GssOrb 1.70.guessorb.h5 1.70.guessorb.molden xmldump
    saved to directory /home/grierjones/DDCASPT2/delta_ML/OO/1.70

*** symbolic link created: INPORB -> 1.70.GssOrb
--- Start Module: scf at Thu Apr 25 14:07:21 2024 ---
 
()()()()()()()()()()()()()()()()()()()()()()()()()()()()()()()()()()()()()()()()()()()()()()()()()()

                                                &SCF

                                   only a single process is used
                       available to each process: 2.0 GB of memory, 1 thread?
                                            pid: 117161
()()()()()()()()()()()()()()()()()()()()()()()()()()()()()()()()()()()()()()()()()()()()()()()()()()
 
++    Input section:
      --------------
 
      Header of the integral files:
      
       Integrals generated by Gateway/Seward, Thu Apr 25 14:07:21 2024
 
 
      Cartesian coordinates in Angstrom:
      -----------------------------------------------------
      No.  Label        X            Y            Z        
      -----------------------------------------------------
       1   O1         0.00000000   0.00000000   0.00000000
       2   O2         0.00000000   0.00000000   1.70000000
      -----------------------------------------------------
      Nuclear repulsion energy =   19.92196559
--
 
++    Orbital specifications:
      -----------------------
 
      Symmetry species               1
                                     a
      Frozen orbitals                0
      Occupied orbitals alpha        8
      Occupied orbitals beta         8
      Secondary orbitals alpha       2
      Secondary orbitals beta        2
      Deleted orbitals               0
      Total number of orbitals      10
      Number of basis functions     10
--
 
      Molecular charge                           0.000
 
++    Optimization specifications:
      ----------------------------
 
      SCF Algorithm: Conventional USCF
      D(i)-D(i-1) density differences are used
      Number of density matrices in core                 5
      Maximum number of NDDO SCF iterations            400
      Maximum number of HF SCF iterations              400
      Threshold for SCF energy change             1.00E-09
      Threshold for density matrix                1.00E-04
      Threshold for Fock matrix                   1.50E-04
      Threshold for linear dependence             1.00E-09
      Threshold at which DIIS is turned on        1.50E-01
      Maximum depth in the DIIS procedure                5
      Maximum depth in the BFGS Hessian update          30
      Threshold at which QNR/C2DIIS is turned on  7.50E-02
      Threshold for Norm(delta) (QNR/C2DIIS)      1.00E-03
      All orbitals punched on: UHFORB
--
 
      Input vectors read from INPORB
      Orbital file label: *Guess orbitals
 
 
++ Convergence information
                               UHF SCF        iterations: Energy and convergence statistics
 
Iter     Tot. SCF        One-elec.       Two-elec.     Energy      Max Dij or  Max Fij      DNorm      TNorm      AccCon     Time
         Energy          Energy          Energy        Change      Delta Norm                                                in Sec.
   1  -149.425894625  -245.047485207    75.699624995   0.00E+00    1.53E-01*   9.54E-02*    5.89E+00   3.04E+01   None         0.
   2  -149.444418129  -245.266731172    75.900347456  -1.85E-02*   3.81E-02*   2.40E-02*    3.79E-01   3.05E+01   EDIIS        0.
   3  -149.445559404  -245.321353388    75.953828398  -1.14E-03*   2.04E-04*   7.83E-03*    9.53E-02   3.05E+01   c2DIIS       0.
   4  -149.445632368  -245.339129632    75.971531677  -7.30E-05*   8.02E-05    3.57E-05     8.21E-04   3.05E+01   QNRc2DIIS    0.
   5  -149.445632370  -245.339049100    75.971451143  -2.53E-09*   2.55E-05    8.62E-06     1.42E-04   3.05E+01   QNRc2DIIS    0.
   6  -149.445632370  -245.339023291    75.971425334  -1.56E-10    4.46E-08    2.71E-07     4.54E-05   3.05E+01   QNRc2DIIS    0.
 
       Convergence after   6 Macro Iterations
--
 
 *****************************************************************************************************************************
 *                                                                                                                           *
 *                                             SCF/KS-DFT Program, Final results                                             *
 *                                                                                                                           *
 *                                                                                                                           *
 *                                                                                                                           *
 *                                                       Final Results                                                       *
 *                                                                                                                           *
 *****************************************************************************************************************************
 
::    Total SCF energy                               -149.4456323704
      One-electron energy                            -245.3390232910
      Two-electron energy                              75.9714253336
      Nuclear repulsion energy                         19.9219655869
      Kinetic energy (interpolated)                   149.3311324390
      Virial theorem                                    1.0007667519
      Total spin, S(S+1)                               -0.0000000000
      Total spin, S                                    -0.0000000000
      Max non-diagonal density matrix element           0.0000000270
      Max non-diagonal Fock matrix element              0.0000000101
 
 
      All orbitals with orbital energies smaller than  E(LUMO)+0.5 are printed
 
++    Molecular orbitals:
      -------------------
 
      Title: UHF orbitals (alpha)

      Molecular orbitals for symmetry species 1: a  
 
          Orbital            1         2         3         4         5         6         7         8         9        10    
          Energy          -20.8193  -20.8191   -1.4180   -1.2405   -0.6788   -0.6070   -0.5924   -0.5230   -0.1353    0.0205
          Occ. No.          1.0000    1.0000    1.0000    1.0000    1.0000    1.0000    1.0000    1.0000    0.0000    0.0000
 
        1 O1     1s         0.7071   -0.7071   -0.0053   -0.0039    0.0000    0.0119    0.0000    0.0000   -0.0000    0.0170
        2 O1     2s        -0.0005    0.0002    0.6498   -0.7378    0.0000    0.1935    0.0000    0.0000   -0.0000    0.2499
        3 O1     2px       -0.0000   -0.0000    0.0000   -0.0000    0.6300    0.0000   -0.6987    0.2375   -0.2634    0.0000
        4 O1     2py       -0.0000   -0.0000    0.0000    0.0000   -0.2375   -0.0000    0.2634    0.6300   -0.6987   -0.0000
        5 O1     2pz        0.0004   -0.0005    0.0727    0.0639   -0.0000   -0.6534   -0.0000    0.0000    0.0000    0.8107
        6 O2     1s         0.7071    0.7071   -0.0053    0.0039    0.0000    0.0119    0.0000   -0.0000   -0.0000   -0.0170
        7 O2     2s        -0.0005   -0.0002    0.6498    0.7378    0.0000    0.1935    0.0000   -0.0000   -0.0000   -0.2499
        8 O2     2px        0.0000    0.0000    0.0000   -0.0000    0.6300   -0.0000    0.6987    0.2375    0.2634   -0.0000
        9 O2     2py        0.0000   -0.0000   -0.0000    0.0000   -0.2375    0.0000   -0.2634    0.6300    0.6987   -0.0000
       10 O2     2pz       -0.0004   -0.0005   -0.0727    0.0639    0.0000    0.6534    0.0000    0.0000   -0.0000    0.8107
--
 
 
      Input file to MOLDEN was generated!
 
 
++    Static properties:
      ------------------
 
 
      LoProp Charges per center
 

                   O1       O2    
      Nuclear      8.0000   8.0000
      Electronic  -8.0000  -8.0000
 
      Total        0.0000  -0.0000
--
 
 
      All orbitals with orbital energies smaller than  E(LUMO)+0.5 are printed
 
++    Molecular orbitals:
      -------------------
 
      Title: UHF orbitals (beta)

      Molecular orbitals for symmetry species 1: a  
 
          Orbital            1         2         3         4         5         6         7         8         9        10    
          Energy          -20.8193  -20.8191   -1.4180   -1.2405   -0.6788   -0.6070   -0.5924   -0.5230   -0.1353    0.0205
          Occ. No.          1.0000    1.0000    1.0000    1.0000    1.0000    1.0000    1.0000    1.0000    0.0000    0.0000
 
        1 O1     1s         0.7071   -0.7071   -0.0053   -0.0039    0.0000    0.0119    0.0000    0.0000   -0.0000    0.0170
        2 O1     2s        -0.0005    0.0002    0.6498   -0.7378    0.0000    0.1935    0.0000    0.0000   -0.0000    0.2499
        3 O1     2px       -0.0000   -0.0000    0.0000   -0.0000    0.6300    0.0000   -0.6987    0.2375   -0.2634    0.0000
        4 O1     2py       -0.0000   -0.0000    0.0000    0.0000   -0.2375   -0.0000    0.2634    0.6300   -0.6987   -0.0000
        5 O1     2pz        0.0004   -0.0005    0.0727    0.0639   -0.0000   -0.6534   -0.0000    0.0000    0.0000    0.8107
        6 O2     1s         0.7071    0.7071   -0.0053    0.0039    0.0000    0.0119    0.0000   -0.0000   -0.0000   -0.0170
        7 O2     2s        -0.0005   -0.0002    0.6498    0.7378    0.0000    0.1935    0.0000   -0.0000   -0.0000   -0.2499
        8 O2     2px        0.0000    0.0000    0.0000   -0.0000    0.6300   -0.0000    0.6987    0.2375    0.2634   -0.0000
        9 O2     2py        0.0000   -0.0000   -0.0000    0.0000   -0.2375    0.0000   -0.2634    0.6300    0.6987   -0.0000
       10 O2     2pz       -0.0004   -0.0005   -0.0727    0.0639    0.0000    0.6534    0.0000    0.0000   -0.0000    0.8107
--
 
 
++    Molecular charges:
      ------------------
 
      Mulliken charges per centre and basis function type
      ---------------------------------------------------
 
                            O1                      O2    
                     alpha        beta       alpha        beta
      1s           1.0000      1.0000      1.0000      1.0000
      2s           0.9870      0.9870      0.9870      0.9870
      2px          0.9378      0.9378      0.9378      0.9378
      2pz          0.5130      0.5130      0.5130      0.5130
      2py          0.5622      0.5622      0.5622      0.5622
      Total        4.0000      4.0000      4.0000      4.0000
      Total              8.0000                  8.0000
 
      Charge            0.0000                 -0.0000
 
      Total electronic charge=   16.000000
 
      Total            charge=   -0.000000
--
 
 
      Input file to MOLDEN was generated!
 
 
++    Static properties:
      ------------------
 
 
      LoProp Charges per center
 

                   O1       O2    
      Nuclear      8.0000   8.0000
      Electronic  -8.0000  -8.0000
 
      Total        0.0000  -0.0000
--
 
 
++    Natural Bond Order analysis
      ---------------------------
      Based on LoProp computed density
      -------------------------------------------------------------------------------------
      Atom A       Atom B       Bond Order
        O1           O2             0.754
      -------------------------------------------------------------------------------------
      NBO located      1.508 electrons involved in    1 bonds.
      NBO located      1.000 non-bonded electrons on atom O1        
      The remaining    5.683 electrons are to be considered as diffuse
--
 
 
++    Molecular orbitals:
      -------------------
 
      Title: Natural orbitals

      Molecular orbitals for symmetry species 1: a  
 
          Orbital            1         2         3         4         5         6         7         8         9        10    
          Energy          -20.8193  -20.8191   -1.4180   -1.2405   -0.6788   -0.6070   -0.5924   -0.5230   -0.1353    0.0205
          Occ. No.          2.0000    2.0000    2.0000    2.0000    2.0000    2.0000    2.0000    2.0000    0.0000    0.0000
 
        1 O1     1s         0.7071   -0.7071   -0.0053   -0.0039    0.0000   -0.0119    0.0000   -0.0000   -0.0000   -0.0170
        2 O1     2s        -0.0005    0.0002    0.6498   -0.7378    0.0000   -0.1935    0.0000    0.0000   -0.0000   -0.2499
        3 O1     2px       -0.0000   -0.0000    0.0000    0.0000    0.6300   -0.0000   -0.6987   -0.2375   -0.2634   -0.0000
        4 O1     2py       -0.0000   -0.0000    0.0000    0.0000   -0.2375    0.0000    0.2634   -0.6300   -0.6987    0.0000
        5 O1     2pz        0.0004   -0.0005    0.0727    0.0639   -0.0000    0.6534   -0.0000    0.0000    0.0000   -0.8107
        6 O2     1s         0.7071    0.7071   -0.0053    0.0039    0.0000   -0.0119    0.0000   -0.0000   -0.0000    0.0170
        7 O2     2s        -0.0005   -0.0002    0.6498    0.7378    0.0000   -0.1935    0.0000    0.0000   -0.0000    0.2499
        8 O2     2px        0.0000   -0.0000    0.0000    0.0000    0.6300    0.0000    0.6987   -0.2375    0.2634    0.0000
        9 O2     2py        0.0000   -0.0000    0.0000    0.0000   -0.2375   -0.0000   -0.2634   -0.6300    0.6987    0.0000
       10 O2     2pz       -0.0004   -0.0005   -0.0727    0.0639    0.0000   -0.6534    0.0000   -0.0000   -0.0000   -0.8107
--
 
 
++    Molecular properties:
      ---------------------
 
      Charge (e):
                      =   -0.0000
      Dipole Moment (Debye):
      Origin of the operator (Ang)=    0.0000    0.0000    0.0000
                   X=  1.0368E-14               Y= -1.2121E-14               Z= -2.2124E-11           Total=  2.2124E-11
      Quadrupole Moment (Debye*Ang):
      Origin of the operator (Ang)=    0.0000    0.0000    0.8500
                  XX= -1.1814E+01              XY=  6.4082E-01              XZ= -2.2854E-13              YY= -1.0356E+01
                  YZ= -8.5488E-13              ZZ= -1.0483E+01
      In traceless form (Debye*Ang)
                  XX= -1.3947E+00              XY=  9.6123E-01              XZ= -3.4281E-13              YY=  7.9280E-01
                  YZ= -1.2823E-12              ZZ=  6.0189E-01
--
 
 
      Input file to MOLDEN was generated!
 
 ###############################################################################
 ###############################################################################
 ###                                                                         ###
 ###                                                                         ###
 ###    WARNING: RunFile label nBas                                          ###
 ###    was used       87 times                                              ###
 ###                                                                         ###
 ###                                                                         ###
 ###############################################################################
 ###############################################################################
--- Stop Module: scf at Thu Apr 25 14:07:22 2024 /rc=_RC_ALL_IS_WELL_ ---
*** files: 1.70.LprOrb 1.70.LoProp.molden 1.70.scf.molden 1.70.scf.h5 1.70.UhfOrb 1.70.UnaOrb xmldump
    saved to directory /home/grierjones/DDCASPT2/delta_ML/OO/1.70

*** symbolic link created: INPORB -> 1.70.UnaOrb
--- Start Module: mbpt2 at Thu Apr 25 14:07:22 2024 ---
 
()()()()()()()()()()()()()()()()()()()()()()()()()()()()()()()()()()()()()()()()()()()()()()()()()()

                                               &MBPT2

                                   only a single process is used
                       available to each process: 2.0 GB of memory, 1 thread?
                                            pid: 117164
()()()()()()()()()()()()()()()()()()()()()()()()()()()()()()()()()()()()()()()()()()()()()()()()()()
 
 
 ###############################################################################
 ###############################################################################
 ###                                                                         ###
 ###                                                                         ###
 ###    WARNING: MP2 implementation intended for RHF references only         ###
 ###                                                                         ###
 ###                                                                         ###
 ###############################################################################
 ###############################################################################
MBPT2 WARNING: Reference function according to RunFile:UHF-SCF 
I'll assume you know what you're doing and continue
 
 
WARNING!
Default frozen orbitals as non valence orbitals is overwritten by user input.
Default values:   2
 
 
      Cartesian coordinates in Angstrom:
      -----------------------------------------------------
      No.  Label        X            Y            Z        
      -----------------------------------------------------
       1   O1         0.00000000   0.00000000   0.00000000
       2   O2         0.00000000   0.00000000   1.70000000
      -----------------------------------------------------
      Nuclear repulsion energy =   19.92196559
 
      Contents of RUNFILE file:
      -------------------------
 
      Symmetry species                           1
                                                 a
      Number of basis functions                 10
      Frozen occupied orbitals                   0
      Active occupied orbitals                   8
      Active external orbitals                   2
      Deleted external orbitals                  0
 
 
      Energies of the active occupied orbitals
 
      symmetry species 1                   -20.819328    -20.819050     -1.417987     -1.240520     -0.678831
                                            -0.606999     -0.592390     -0.522982
 
 
      Energies of the active external orbitals
 
      symmetry species 1                    -0.135272      0.020491
 
 
      ********************************************************************************************************
      *                                               Results                                                *
      ********************************************************************************************************
 
 Conventional algorithm used...

       SCF energy                           =     -149.4456323704 a.u.
       Second-order correlation energy      =       -0.2996197672 a.u.

       Total energy                         =     -149.7452521376 a.u.
       Reference weight ( Cref**2 )         =        0.76700
 
::    Total MBPT2 energy                             -149.7452521376
 
 
       Zeroth-order energy (E0)             =      -73.4742070368 a.u.
 
       Shanks-type energy S1(E)             =     -149.7464384712 a.u.
 
 


       Data processing and timing information:

       Section                                              time(sec)
                                                          CPU  Elapsed

      Input data processing                              0.01      0.04
      Transformation of integrals                        0.00      0.00
      MBPT2 calculations (BJAI)                          0.00      0.00
      Total MBPT2 calculations                           0.01      0.04
 
 
--- Stop Module: mbpt2 at Thu Apr 25 14:07:22 2024 /rc=_RC_ALL_IS_WELL_ ---
*** files: xmldump
    saved to directory /home/grierjones/DDCASPT2/delta_ML/OO/1.70

*** symbolic link created: INPORB -> 1.70.UnaOrb
--- Start Module: rasscf at Thu Apr 25 14:07:22 2024 ---
 
()()()()()()()()()()()()()()()()()()()()()()()()()()()()()()()()()()()()()()()()()()()()()()()()()()

                                              &RASSCF

                                   only a single process is used
                       available to each process: 2.0 GB of memory, 1 thread?
                                            pid: 117167
()()()()()()()()()()()()()()()()()()()()()()()()()()()()()()()()()()()()()()()()()()()()()()()()()()
 
 
      Header of the ONEINT file:
      --------------------------
      
      Integrals generated by Gateway/Seward, Thu Apr 25 14:07:21 2024
 
 
      OrdInt status: non-squared
 
 
      Cartesian coordinates in Angstrom:
      -----------------------------------------------------
      No.  Label        X            Y            Z        
      -----------------------------------------------------
       1   O1         0.00000000   0.00000000   0.00000000
       2   O2         0.00000000   0.00000000   1.70000000
      -----------------------------------------------------
      Nuclear repulsion energy =   19.92196559
 
++    Wave function specifications:
      -----------------------------
 
      Number of closed shell electrons          14
      Number of electrons in active shells       2
      Max number of holes in RAS1 space          0
      Max nr of electrons in RAS3 space          0
      Number of inactive orbitals                7
      Number of active orbitals                  2
      Number of secondary orbitals               1
      Spin quantum number                      0.0
      State symmetry                             1
--
 
++    Orbital specifications:
      -----------------------
 
      Symmetry species                           1
                                                 a
      Frozen orbitals                            0
      Inactive orbitals                          7
      Active orbitals                            2
      RAS1 orbitals                              0
      RAS2 orbitals                              2
      RAS3 orbitals                              0
      Secondary orbitals                         1
      Deleted orbitals                           0
      Number of basis functions                 10
--
 
++    CI expansion specifications:
      ----------------------------
 
      Number of CSFs                             3
      Number of determinants                     3
      Number of root(s) required                 1
      Root chosen for geometry opt.              1
      CI root used                               1
         
      highest root included in the CI            1
      max. size of the explicit Hamiltonian      3
--
 
++    Optimization specifications:
      ----------------------------
 
      RASSCF algorithm: Conventional
      Maximum number of macro iterations       200
      Maximum number of SX iterations          100
      Threshold for RASSCF energy            1.000E-08
      Threshold for max MO rotation          1.000E-01
      Threshold for max BLB element          1.000E-04
      Level shift parameter                  5.000E-01
      Make Quasi-Newton update
--
 
      The MO-coefficients are taken from the file:
      /home/grierjones/DDCASPT2/delta_ML/OO/1.60/1.60.RasOrb                                                                                                                                                                                                          
      Title: RASSCF average (pseudo-natural) orbitals                                      
 
      Total molecular charge    0.00
 
      ************************************************************************************************************************
      *                                                                                                                      *
      *                                            Wave function control section                                             *
      *                                                                                                                      *
      ************************************************************************************************************************
 
 
                                         RASSCF iterations: Energy and convergence statistics
                                         ----------------------------------------------------
 
      Iter CI   SX   CI       RASSCF       Energy    max ROT     max BLB   max BLB  Level Ln srch  Step   QN   Walltime
          iter iter root      energy       change     param      element    value   shift minimum  type update hh:mm:ss
 Nr of preliminary CI iterations:   1
        1   1    3    1  -149.46741381    0.00E+00  -8.73E-03    4  10 1  2.66E-02*  0.26   0.00    SX    NO    0:00:00
        2   1    3    1  -149.46773382   -3.20E-04* -3.27E-03    4  10 1  9.97E-03*  0.26   0.00    SX    NO    0:00:00
        3   1    3    1  -149.46777876   -4.49E-05* -1.22E-03    4  10 1  3.73E-03*  0.26   0.00    SX    NO    0:00:00
        4   1    3    1  -149.46778506   -6.29E-06* -4.58E-04    4  10 1  1.40E-03*  0.26   0.00    SX    NO    0:00:00
        5   1    3    1  -149.46778594   -8.81E-07* -2.74E-04    4  10 1  5.22E-04*  0.26   1.60    LS   YES    0:00:00
        6   1    2    1  -149.46778608   -1.43E-07* -7.92E-08    4  10 1  1.51E-07   0.26   1.00    QN   YES    0:00:00
        7   1    1    1  -149.46778608   -1.71E-13   2.47E-13    2  10 1 -4.41E-09   0.26   1.00    QN   YES    0:00:00
      Convergence after  7 iterations
        8   1    1    1  -149.46778608    1.42E-13   2.47E-13    2  10 1 -4.41E-09   0.26   1.00    QN   YES    0:00:00
 
      ************************************************************************************************************************
                                                      Wave function printout:
                       occupation of active orbitals, and spin coupling of open shells (u,d: Spin up or down)
      ************************************************************************************************************************
 
      Note: transformation to natural orbitals
      has been made, which may change the order of the CSFs.
 
      printout of CI-coefficients larger than  0.05 for root  1
      energy=    -149.467786
      conf/sym  11     Coeff  Weight
             2  ud   1.00000 1.00000
 
      Natural orbitals and occupation numbers for root  1
      sym 1:   1.000000   1.000000
 
      ************************************************************************************************************************
      *                                                                                                                      *
      *                                                    Final results                                                     *
      *                                                                                                                      *
      ************************************************************************************************************************
 
 
++    Wave function specifications:
      -----------------------------
 
      Number of closed shell electrons          14
      Number of electrons in active shells       2
      Max number of holes in RAS1 space          0
      Max nr of electrons in RAS3 space          0
      Number of inactive orbitals                7
      Number of active orbitals                  2
      Number of secondary orbitals               1
      Spin quantum number                      0.0
      State symmetry                             1
--
 
++    Orbital specifications:
      -----------------------
 
      Symmetry species                           1
                                                 a
      Frozen orbitals                            0
      Inactive orbitals                          7
      Active orbitals                            2
      RAS1 orbitals                              0
      RAS2 orbitals                              2
      RAS3 orbitals                              0
      Secondary orbitals                         1
      Deleted orbitals                           0
      Number of basis functions                 10
--
 
++    CI expansion specifications:
      ----------------------------
 
      Number of CSFs                             3
      Number of determinants                     3
      Number of root(s) required                 1
      CI root used                               1
      highest root included in the CI            1
      Root passed to geometry opt.               1
--
 
++    Final optimization conditions:
      ------------------------------
 
      Average CI energy                            -149.46778608
      RASSCF energy for state  1                   -149.46778608
      Super-CI energy                                 0.00000000
      RASSCF energy change                            0.00000000
      Max change in MO coefficients               2.005E-13
      Max non-diagonal density matrix element     2.473E-13
      Maximum BLB matrix element                 -4.406E-09
      (orbital pair   2,  10 in symmetry   1)
      Norm of electronic gradient            4.407E-09
--
 
 
      Final state energy(ies):
      ------------------------
 
::    RASSCF root number  1 Total energy:   -149.46778608
 
++    Molecular orbitals:
      -------------------
 
      Pseudonatural active orbitals and approximate occupation numbers
 
 
 
 
      Molecular orbitals for symmetry species 1: a  
 
 
      Orbital                 1         2         3         4         5         6         7         8         9        10
      Energy           -20.8193  -20.8191   -1.4180   -1.2405   -0.6070   -0.6009   -0.6009   -0.3638   -0.0000    0.0205
      Occ. No.           2.0000    2.0000    2.0000    2.0000    2.0000    2.0000    2.0000    1.0000    1.0000    0.0000
 
     1 O1     1s         0.7071   -0.7071    0.0053   -0.0039    0.0119    0.0000   -0.0000   -0.0000   -0.0000    0.0170
     2 O1     2s        -0.0005    0.0002   -0.6498   -0.7378    0.1935    0.0000   -0.0000   -0.0000   -0.0000    0.2499
     3 O1     2px       -0.0000   -0.0000   -0.0000   -0.0000    0.0000    0.6350    0.2236    0.3984    0.6314   -0.0000
     4 O1     2py       -0.0000   -0.0000   -0.0000    0.0000   -0.0000    0.2236   -0.6350    0.6314   -0.3984    0.0000
     5 O1     2pz        0.0004   -0.0005   -0.0727    0.0639   -0.6534   -0.0000    0.0000    0.0000    0.0000    0.8107
     6 O2     1s         0.7071    0.7071    0.0053    0.0039    0.0119    0.0000   -0.0000    0.0000   -0.0000   -0.0170
     7 O2     2s        -0.0005   -0.0002   -0.6498    0.7378    0.1935    0.0000   -0.0000   -0.0000   -0.0000   -0.2499
     8 O2     2px       -0.0000    0.0000    0.0000   -0.0000    0.0000    0.6350    0.2236   -0.3984   -0.6314   -0.0000
     9 O2     2py        0.0000   -0.0000   -0.0000   -0.0000   -0.0000    0.2236   -0.6350   -0.6314    0.3984   -0.0000
    10 O2     2pz       -0.0004   -0.0005    0.0727    0.0639    0.6534    0.0000   -0.0000   -0.0000    0.0000    0.8107
--
 
      Von Neumann Entropy (Root   1) =  1.00000
 

      Mulliken population analysis for root number:  1
      -----------------------------------------------
 
 
++    Molecular charges:
      ------------------
 
      Mulliken charges per centre and basis function type
      ---------------------------------------------------
 
                O1      O2    
      1s       2.0000  2.0000
      2s       1.9740  1.9740
      2px      1.5000  1.5000
      2pz      1.0260  1.0260
      2py      1.5000  1.5000
      Total    8.0000  8.0000
 
      N-E     -0.0000  0.0000
 
      Total electronic charge=   16.000000
 
      Total            charge=   -0.000000
--
 
 

      Expectation values of various properties for root number:  1
      -----------------------------------------------------------
 
 
++    Molecular properties:
      ---------------------
 
      Charge (e):
                      =   -0.0000
      Dipole Moment (Debye):
      Origin of the operator (Ang)=    0.0000    0.0000    0.0000
                   X=  2.2728E-14               Y=  2.1319E-14               Z=  6.5288E-12           Total=  6.5288E-12
      Quadrupole Moment (Debye*Ang):
      Origin of the operator (Ang)=    0.0000    0.0000    0.8500
                  XX= -1.1085E+01              XY= -6.7909E-14              XZ=  2.6738E-14              YY= -1.1085E+01
                  YZ= -6.7808E-15              ZZ= -1.0483E+01
      In traceless form (Debye*Ang)
                  XX= -3.0095E-01              XY= -1.0186E-13              XZ=  4.0107E-14              YY= -3.0095E-01
                  YZ= -1.0171E-14              ZZ=  6.0189E-01
--
 

      LoProp population analysis for root number:  1
      -----------------------------------------------
 
 
++    LoProp analysis:
      ----------------
 
 
 
      Input file to MOLDEN was generated!
 
 
++    Static properties:
      ------------------
 
 
      LoProp Charges per center
 

                   O1       O2    
      Nuclear      8.0000   8.0000
      Electronic  -8.0000  -8.0000
 
      Total       -0.0000   0.0000
--
 
 
      Natural Bond Order analysis for root number:  1
 
++    Natural Bond Order analysis
      ---------------------------
      Based on LoProp computed density
      -------------------------------------------------------------------------------------
      Atom A       Atom B       Bond Order
        O1           O2             0.754
      -------------------------------------------------------------------------------------
      NBO located      1.508 electrons involved in    1 bonds.
      NBO located      1.000 non-bonded electrons on atom O1        
      The remaining    5.683 electrons are to be considered as diffuse
--
 
--
 
 
      Input file to MOLDEN was generated!
 
      Average orbitals are written to the RASORB file
      Natural orbitals for root   1 are written to the RASORB.1 file
      Spin density orbitals for root   1 are written to the SPDORB.1 file
 
--- Stop Module: rasscf at Thu Apr 25 14:07:22 2024 /rc=_RC_ALL_IS_WELL_ ---
*** files: 1.70.LprOrb 1.70.rasscf.molden 1.70.LoProp.molden 1.70.RasOrb.1 1.70.RasOrb 1.70.rasscf.h5 1.70.SpdOrb.1 xmldump
    saved to directory /home/grierjones/DDCASPT2/delta_ML/OO/1.70

*** symbolic link created: INPORB -> 1.70.RasOrb
--- Start Module: caspt2 at Thu Apr 25 14:07:22 2024 ---
 
()()()()()()()()()()()()()()()()()()()()()()()()()()()()()()()()()()()()()()()()()()()()()()()()()()

                                              &CASPT2

                                   only a single process is used
                       available to each process: 2.0 GB of memory, 1 thread?
                                            pid: 117170
()()()()()()()()()()()()()()()()()()()()()()()()()()()()()()()()()()()()()()()()()()()()()()()()()()
 
 ###############################################################################
 ###############################################################################
 ###                                                                         ###
 ###                                                                         ###
 ###    WARNING: User changed nr of frozen orbitals.                         ###
 ###                                                                         ###
 ###                                                                         ###
 ###############################################################################
 ###############################################################################
 
++    Wave function specifications:
      -----------------------------
 
      Number of closed shell electrons          14
      Number of electrons in active shells       2
      Max number of holes in RAS1 space          0
      Max number of electrons in RAS3 space      0
      Number of inactive orbitals                7
      Number of active orbitals                  2
      Number of secondary orbitals               1
      Spin quantum number                      0.0
      State symmetry                             1
      Number of CSFs                             3
      Number of CASSCF root(s) available         1
      CASPT2 state passed to geometry opt.       1
      A file JOBMIX will be created
      This is a CASSCF or RASSCF reference function
--
 
++    Orbital specifications:
      -----------------------
 
      Symmetry species                           1
                                                 a
      Frozen orbitals                            0
      Inactive orbitals                          7
      Active orbitals                            2
      Secondary orbitals                         1
      Deleted orbitals                           0
      Number of basis functions                 10
--
 
++    CASPT2 specifications:
      ----------------------
 
      Type of calculation                        SS-CASPT2
      Fock operator                              state-specific
      IPEA shift                                 0.25
      Real shift                                 0.00
      Imaginary shift                            0.00
      The input orbitals will be transformed to quasi-canonical
--
 
--------------------------------------------------------------------------------
 Estimated memory requirements:
  POLY3 :                   250070
  RHS:                      250374
  SIGMA :                   250336
  PRPCTL:                        0
 Available workspace:    230392690
 
++ CASPT2 computation for group   1
 
********************************************************************************
 Multi-State initialization phase begins for group   1
--------------------------------------------------------------------------------
********************************************************************************
 Compute H0 matrices for state    1
--------------------------------------------------------------------------------
--------------------------------------------------------------------------------
 H0 matrices have been computed.
 
********************************************************************************
  CASPT2 EQUATION SOLUTION
--------------------------------------------------------------------------------
 
  Total nr of CASPT2 parameters:
   Before reduction:         368
   After  reduction:         213
 
 Variance of |WF0>:       0.2935951061
-----------------------------------------------------------------------------------------------------------------------------
 
  FINAL CASPT2 RESULT:
 
      Reference energy:        -149.4677860807
      E2 (Non-variational):      -0.3119751275
      E2 (Variational):          -0.3119751275
      Total energy:            -149.7797612082
      Residual norm:              0.0000000000
      Reference weight:           0.72521
 
      Contributions to the CASPT2 correlation energy
      Active & Virtual Only:         -0.0000000000
      One Inactive Excited:          -0.0000000000
      Two Inactive Excited:          -0.3119751275
 
 
++ Denominators, etc.
--------------------------------------------------------------------------------------------------------------
 Report on small energy denominators, large coefficients, and large energy contributions.
CASE  SYMM ACTIVE-MIX  NON-ACTIVE INDICES          DENOMINATOR     RHS VALUE       COEFFICIENT     CONTRIBUTION
VJTIP    1  Mu1.0001  In1.006 In1.006               0.55748331      0.16467336     -0.29538707     -0.04864238
VJTIP    1  Mu1.0001  In1.007 In1.006               0.55748331      0.04551481     -0.08164335     -0.00371598
VJTIP    1  Mu1.0001  In1.007 In1.007               0.55748331     -0.16467336      0.29538707     -0.04864238
VJAIP    1  Mu1.0002  Se1.010 In1.006 In1.003       1.80055304      0.04559111     -0.02532062     -0.00115440
VJAIP    1  Mu1.0002  Se1.010 In1.006 In1.005       0.98956517      0.15499971     -0.15663416     -0.02427825
VJAIP    1  Mu1.0001  Se1.010 In1.007 In1.003       1.80055304      0.04559111     -0.02532062     -0.00115440
VJAIP    1  Mu1.0001  Se1.010 In1.007 In1.005       0.98956517      0.15499971     -0.15663416     -0.02427825
VJAIM    1  Mu1.0002  Se1.010 In1.006 In1.005       0.98956517     -0.22987714      0.23230116     -0.05340073
VJAIM    1  Mu1.0001  Se1.010 In1.007 In1.005       0.98956517     -0.22987714      0.23230116     -0.05340073
BJAIP    1  Se1.010 In1.003 Se1.010 In1.003         2.87695610      0.08094393     -0.02813527     -0.00227738
BJAIP    1  Se1.010 In1.004 Se1.010 In1.004         2.52202259      0.08520334     -0.03378373     -0.00287849
BJAIP    1  Se1.010 In1.003 Se1.010 In1.005         2.06596823      0.06097876     -0.02951583     -0.00179984
BJAIP    1  Se1.010 In1.005 Se1.010 In1.005         1.25498037      0.22950265     -0.18287349     -0.04196995
--
 
   (Skipping property calculation,
    use PROP keyword to activate)
--
 
  Total CASPT2 energies:
::    CASPT2 Root  1     Total energy:   -149.77976121
 
  A NEW JOBIPH FILE NAMED 'JOBMIX' IS PREPARED.
********************************************************************************
--- Stop Module: caspt2 at Thu Apr 25 14:07:22 2024 /rc=_RC_ALL_IS_WELL_ ---
*** files: xmldump
    saved to directory /home/grierjones/DDCASPT2/delta_ML/OO/1.70

.##################.
.# Happy landing! #.
.##################.

    Timing: Wall=2.04 User=1.45 System=0.25
************************************
*** WorkDir at /tmp/1.70 removed ***
************************************
