[Molden Format]
[N_Atoms]
                     2
[Atoms] (AU)
O1          1      8           0.00000000      0.00000000      0.00000000
O2          2      8           0.00000000      0.00000000      3.21253441
[Charge] (Mulliken)
 -5.577760475716786E-013
  5.471179065352771E-013
[GTO] (AU)
   1
   s  14
  1.053749500E+05  1.238600013E-04
  1.567924000E+04  5.120100053E-04
  3.534544700E+03  2.152910022E-03
  9.873651600E+02  8.528440089E-03
  3.159787500E+02  3.018049031E-02
  1.116542800E+02  9.099702095E-02
  4.269945100E+01  2.177936423E-01
  1.739559600E+01  3.686245738E-01
  7.438309000E+00  3.366707335E-01
  3.222862000E+00  9.657630101E-02
  1.253877000E+00  2.144520022E-03
  4.951550000E-01  1.194350012E-03
  1.916650000E-01  5.390200056E-04
  6.708300000E-02  2.103400022E-04
   s  14
  1.053749500E+05 -2.815000008E-05
  1.567924000E+04 -1.163000003E-04
  3.534544700E+03 -4.909200013E-04
  9.873651600E+02 -1.946160005E-03
  3.159787500E+02 -7.005300019E-03
  1.116542800E+02 -2.167814006E-02
  4.269945100E+01 -5.641213015E-02
  1.739559600E+01 -1.127053003E-01
  7.438309000E+00 -1.589119704E-01
  3.222862000E+00 -3.355083009E-02
  1.253877000E+00  3.531902810E-01
  4.951550000E-01  5.534199315E-01
  1.916650000E-01  2.301839106E-01
  6.708300000E-02  1.127267003E-02
   p   9
  2.000000000E+02  9.173000030E-04
  4.653336700E+01  7.377140024E-03
  1.462180900E+01  3.483515011E-02
  5.313064000E+00  1.144397004E-01
  2.102525000E+00  2.554966408E-01
  8.502230000E-01  3.722557412E-01
  3.375970000E-01  3.323314911E-01
  1.288920000E-01  1.400847905E-01
  4.511200000E-02  2.395784008E-02
 
   2
   s  14
  1.053749500E+05  1.238600013E-04
  1.567924000E+04  5.120100053E-04
  3.534544700E+03  2.152910022E-03
  9.873651600E+02  8.528440089E-03
  3.159787500E+02  3.018049031E-02
  1.116542800E+02  9.099702095E-02
  4.269945100E+01  2.177936423E-01
  1.739559600E+01  3.686245738E-01
  7.438309000E+00  3.366707335E-01
  3.222862000E+00  9.657630101E-02
  1.253877000E+00  2.144520022E-03
  4.951550000E-01  1.194350012E-03
  1.916650000E-01  5.390200056E-04
  6.708300000E-02  2.103400022E-04
   s  14
  1.053749500E+05 -2.815000008E-05
  1.567924000E+04 -1.163000003E-04
  3.534544700E+03 -4.909200013E-04
  9.873651600E+02 -1.946160005E-03
  3.159787500E+02 -7.005300019E-03
  1.116542800E+02 -2.167814006E-02
  4.269945100E+01 -5.641213015E-02
  1.739559600E+01 -1.127053003E-01
  7.438309000E+00 -1.589119704E-01
  3.222862000E+00 -3.355083009E-02
  1.253877000E+00  3.531902810E-01
  4.951550000E-01  5.534199315E-01
  1.916650000E-01  2.301839106E-01
  6.708300000E-02  1.127267003E-02
   p   9
  2.000000000E+02  9.173000030E-04
  4.653336700E+01  7.377140024E-03
  1.462180900E+01  3.483515011E-02
  5.313064000E+00  1.144397004E-01
  2.102525000E+00  2.554966408E-01
  8.502230000E-01  3.722557412E-01
  3.375970000E-01  3.323314911E-01
  1.288920000E-01  1.400847905E-01
  4.511200000E-02  2.395784008E-02
 
[MO]
Sym=     1a  
Ene=   -20.8190
Spin= Alpha
Occup=    2.00000
   1         0.70708707
   2        -0.00046894
   3        -0.00000000
   4        -0.00000000
   5         0.00040168
   6         0.70708700
   7        -0.00046894
   8        -0.00000000
   9         0.00000000
  10        -0.00040168
Sym=     2a  
Ene=   -20.8190
Spin= Alpha
Occup=    2.00000
   1        -0.70713054
   2         0.00016583
   3        -0.00000000
   4        -0.00000000
   5        -0.00053046
   6         0.70713061
   7        -0.00016583
   8         0.00000000
   9        -0.00000000
  10        -0.00053046
Sym=     3a  
Ene=    -1.4180
Spin= Alpha
Occup=    2.00000
   1         0.00533444
   2        -0.64978373
   3        -0.00000000
   4        -0.00000000
   5        -0.07271914
   6         0.00533444
   7        -0.64978373
   8         0.00000000
   9        -0.00000000
  10         0.07271914
Sym=     4a  
Ene=    -1.2405
Spin= Alpha
Occup=    2.00000
   1        -0.00393318
   2        -0.73782109
   3        -0.00000000
   4         0.00000000
   5         0.06394893
   6         0.00393318
   7         0.73782109
   8        -0.00000000
   9        -0.00000000
  10         0.06394893
Sym=     5a  
Ene=    -0.6070
Spin= Alpha
Occup=    2.00000
   1         0.01190844
   2         0.19350664
   3         0.00000000
   4        -0.00000000
   5        -0.65335008
   6         0.01190844
   7         0.19350664
   8         0.00000000
   9        -0.00000000
  10         0.65335008
Sym=     6a  
Ene=    -0.6009
Spin= Alpha
Occup=    2.00000
   1         0.00000000
   2         0.00000000
   3         0.63502517
   4         0.22362329
   5        -0.00000000
   6         0.00000000
   7         0.00000000
   8         0.63502517
   9         0.22362329
  10         0.00000000
Sym=     7a  
Ene=    -0.6009
Spin= Alpha
Occup=    2.00000
   1        -0.00000000
   2        -0.00000000
   3         0.22362329
   4        -0.63502517
   5         0.00000000
   6        -0.00000000
   7        -0.00000000
   8         0.22362329
   9        -0.63502517
  10        -0.00000000
Sym=     8a  
Ene=    -0.3638
Spin= Alpha
Occup=    1.00000
   1        -0.00000000
   2        -0.00000000
   3         0.39844457
   4         0.63144541
   5         0.00000000
   6         0.00000000
   7        -0.00000000
   8        -0.39844457
   9        -0.63144541
  10        -0.00000000
Sym=     9a  
Ene=    -0.0000
Spin= Alpha
Occup=    1.00000
   1        -0.00000000
   2        -0.00000000
   3         0.63144541
   4        -0.39844457
   5         0.00000000
   6        -0.00000000
   7        -0.00000000
   8        -0.63144541
   9         0.39844457
  10         0.00000000
Sym=    10a  
Ene=     0.0205
Spin= Alpha
Occup=    0.00000
   1         0.01698238
   2         0.24990575
   3        -0.00000000
   4         0.00000000
   5         0.81066418
   6        -0.01698238
   7        -0.24990575
   8        -0.00000000
   9        -0.00000000
  10         0.81066418
