[Molden Format]
[N_Atoms]
                     2
[Atoms] (AU)
C1          1      6           0.00000000      0.00000000      0.00000000
C2          2      6           0.00000000      0.00000000      1.13383567
[Charge] (Mulliken)
  0.000000000000000E+000
  0.000000000000000E+000
[GTO] (AU)
   1
   s  14
  5.055750100E+04  1.128874000E-04
  7.524785600E+03  5.295373000E-04
  1.694327600E+03  2.450038300E-03
  4.728227900E+02  1.005398470E-02
  1.517107500E+02  3.545398060E-02
  5.391874600E+01  1.044071086E-01
  2.065931100E+01  2.412894918E-01
  8.383976000E+00  3.834225483E-01
  3.577015000E+00  3.078514393E-01
  1.547118000E+00  6.872442990E-02
  6.130130000E-01  2.224445000E-04
  2.460680000E-01  1.976748900E-03
  9.908700000E-02  2.057859400E-03
  3.468000000E-02  4.182020000E-04
   s  14
  5.055750100E+04 -2.507420000E-05
  7.524785600E+03 -1.175945000E-04
  1.694327600E+03 -5.456275000E-04
  4.728227900E+02 -2.245077100E-03
  1.517107500E+02 -8.043471800E-03
  5.391874600E+01 -2.442588710E-02
  2.065931100E+01 -6.136791180E-02
  8.383976000E+00 -1.177767835E-01
  3.577015000E+00 -1.550487783E-01
  1.547118000E+00 -1.933316860E-02
  6.130130000E-01  3.996930678E-01
  2.460680000E-01  5.589420949E-01
  9.908700000E-02  1.711195023E-01
  3.468000000E-02  7.456244600E-03
   p   9
  8.333315500E+01  1.344656000E-03
  1.955761100E+01  1.023555500E-02
  6.080365000E+00  4.520067100E-02
  2.179317000E+00  1.410756198E-01
  8.651500000E-01  3.047388085E-01
  3.619440000E-01  3.995281011E-01
  1.547400000E-01  2.719163432E-01
  6.542900000E-02  5.857669330E-02
  2.290000000E-02 -1.263813000E-04
 
   2
   s  14
  5.055750100E+04  1.128874000E-04
  7.524785600E+03  5.295373000E-04
  1.694327600E+03  2.450038300E-03
  4.728227900E+02  1.005398470E-02
  1.517107500E+02  3.545398060E-02
  5.391874600E+01  1.044071086E-01
  2.065931100E+01  2.412894918E-01
  8.383976000E+00  3.834225483E-01
  3.577015000E+00  3.078514393E-01
  1.547118000E+00  6.872442990E-02
  6.130130000E-01  2.224445000E-04
  2.460680000E-01  1.976748900E-03
  9.908700000E-02  2.057859400E-03
  3.468000000E-02  4.182020000E-04
   s  14
  5.055750100E+04 -2.507420000E-05
  7.524785600E+03 -1.175945000E-04
  1.694327600E+03 -5.456275000E-04
  4.728227900E+02 -2.245077100E-03
  1.517107500E+02 -8.043471800E-03
  5.391874600E+01 -2.442588710E-02
  2.065931100E+01 -6.136791180E-02
  8.383976000E+00 -1.177767835E-01
  3.577015000E+00 -1.550487783E-01
  1.547118000E+00 -1.933316860E-02
  6.130130000E-01  3.996930678E-01
  2.460680000E-01  5.589420949E-01
  9.908700000E-02  1.711195023E-01
  3.468000000E-02  7.456244600E-03
   p   9
  8.333315500E+01  1.344656000E-03
  1.955761100E+01  1.023555500E-02
  6.080365000E+00  4.520067100E-02
  2.179317000E+00  1.410756198E-01
  8.651500000E-01  3.047388085E-01
  3.619440000E-01  3.995281011E-01
  1.547400000E-01  2.719163432E-01
  6.542900000E-02  5.857669330E-02
  2.290000000E-02 -1.263813000E-04
 
[MO]
Sym=     1a  
Ene=   -11.8650
Spin= Alpha
Occup=    2.00000
   1         0.68877392
   2         0.00934543
   3         0.00000000
   4        -0.00000000
   5         0.00772019
   6         0.68877392
   7         0.00934543
   8        -0.00000000
   9         0.00000000
  10        -0.00772019
Sym=     2a  
Ene=   -10.9270
Spin= Alpha
Occup=    2.00000
   1        -0.71764511
   2         0.00914913
   3        -0.00000000
   4         0.00000000
   5         0.00868535
   6         0.71764511
   7        -0.00914913
   8         0.00000000
   9        -0.00000000
  10         0.00868535
Sym=     3a  
Ene=    -1.2615
Spin= Alpha
Occup=    2.00000
   1        -0.13495350
   2         0.51893737
   3        -0.00000000
   4         0.00000000
   5         0.07499556
   6        -0.13495350
   7         0.51893737
   8         0.00000000
   9        -0.00000000
  10        -0.07499556
Sym=     4a  
Ene=    -0.7573
Spin= Alpha
Occup=    2.00000
   1        -0.00000000
   2        -0.00000000
   3         0.18194452
   4         0.50433954
   5        -0.00000000
   6         0.00000000
   7         0.00000000
   8         0.18194452
   9         0.50433954
  10         0.00000000
Sym=     5a  
Ene=    -0.7573
Spin= Alpha
Occup=    2.00000
   1         0.00000000
   2         0.00000000
   3         0.50433954
   4        -0.18194452
   5         0.00000000
   6        -0.00000000
   7        -0.00000000
   8         0.50433954
   9        -0.18194452
  10         0.00000000
Sym=     6a  
Ene=    -0.6640
Spin= Alpha
Occup=    2.00000
   1         0.09883055
   2        -0.31234147
   3        -0.00000000
   4         0.00000000
   5         0.51699315
   6        -0.09883055
   7         0.31234147
   8        -0.00000000
   9         0.00000000
  10         0.51699315
Sym=     7a  
Ene=    -0.2156
Spin= Alpha
Occup=    0.00000
   1         0.23654904
   2         0.23480856
   3        -0.00000000
   4        -0.00000000
   5        -0.98665465
   6         0.23654904
   7         0.23480856
   8         0.00000000
   9         0.00000000
  10         0.98665465
Sym=     8a  
Ene=    -0.1135
Spin= Alpha
Occup=    0.00000
   1         0.00000000
   2         0.00000000
   3        -1.37655301
   4         0.15313805
   5         0.00000000
   6        -0.00000000
   7        -0.00000000
   8         1.37655301
   9        -0.15313805
  10         0.00000000
Sym=     9a  
Ene=    -0.1135
Spin= Alpha
Occup=    0.00000
   1        -0.00000000
   2        -0.00000000
   3        -0.15313805
   4        -1.37655301
   5        -0.00000000
   6         0.00000000
   7         0.00000000
   8         0.15313805
   9         1.37655301
  10        -0.00000000
Sym=    10a  
Ene=    -0.0035
Spin= Alpha
Occup=    0.00000
   1        -2.89870629
   2        -9.01778789
   3         0.00000000
   4         0.00000000
   5        -3.34195296
   6         2.89870629
   7         9.01778789
   8         0.00000000
   9        -0.00000000
  10        -3.34195296
