[Molden Format]
[N_Atoms]
                     2
[Atoms] (AU)
C1          1      6           0.00000000      0.00000000      0.00000000
C2          2      6           0.00000000      0.00000000      1.13383567
[Charge] (Mulliken)
   1.00000000000060     
  0.999999999999403     
[GTO] (AU)
   1
   s  14
  5.055750100E+04  1.128874000E-04
  7.524785600E+03  5.295373000E-04
  1.694327600E+03  2.450038300E-03
  4.728227900E+02  1.005398470E-02
  1.517107500E+02  3.545398060E-02
  5.391874600E+01  1.044071086E-01
  2.065931100E+01  2.412894918E-01
  8.383976000E+00  3.834225483E-01
  3.577015000E+00  3.078514393E-01
  1.547118000E+00  6.872442990E-02
  6.130130000E-01  2.224445000E-04
  2.460680000E-01  1.976748900E-03
  9.908700000E-02  2.057859400E-03
  3.468000000E-02  4.182020000E-04
   s  14
  5.055750100E+04 -2.507420000E-05
  7.524785600E+03 -1.175945000E-04
  1.694327600E+03 -5.456275000E-04
  4.728227900E+02 -2.245077100E-03
  1.517107500E+02 -8.043471800E-03
  5.391874600E+01 -2.442588710E-02
  2.065931100E+01 -6.136791180E-02
  8.383976000E+00 -1.177767835E-01
  3.577015000E+00 -1.550487783E-01
  1.547118000E+00 -1.933316860E-02
  6.130130000E-01  3.996930678E-01
  2.460680000E-01  5.589420949E-01
  9.908700000E-02  1.711195023E-01
  3.468000000E-02  7.456244600E-03
   p   9
  8.333315500E+01  1.344656000E-03
  1.955761100E+01  1.023555500E-02
  6.080365000E+00  4.520067100E-02
  2.179317000E+00  1.410756198E-01
  8.651500000E-01  3.047388085E-01
  3.619440000E-01  3.995281011E-01
  1.547400000E-01  2.719163432E-01
  6.542900000E-02  5.857669330E-02
  2.290000000E-02 -1.263813000E-04
 
   2
   s  14
  5.055750100E+04  1.128874000E-04
  7.524785600E+03  5.295373000E-04
  1.694327600E+03  2.450038300E-03
  4.728227900E+02  1.005398470E-02
  1.517107500E+02  3.545398060E-02
  5.391874600E+01  1.044071086E-01
  2.065931100E+01  2.412894918E-01
  8.383976000E+00  3.834225483E-01
  3.577015000E+00  3.078514393E-01
  1.547118000E+00  6.872442990E-02
  6.130130000E-01  2.224445000E-04
  2.460680000E-01  1.976748900E-03
  9.908700000E-02  2.057859400E-03
  3.468000000E-02  4.182020000E-04
   s  14
  5.055750100E+04 -2.507420000E-05
  7.524785600E+03 -1.175945000E-04
  1.694327600E+03 -5.456275000E-04
  4.728227900E+02 -2.245077100E-03
  1.517107500E+02 -8.043471800E-03
  5.391874600E+01 -2.442588710E-02
  2.065931100E+01 -6.136791180E-02
  8.383976000E+00 -1.177767835E-01
  3.577015000E+00 -1.550487783E-01
  1.547118000E+00 -1.933316860E-02
  6.130130000E-01  3.996930678E-01
  2.460680000E-01  5.589420949E-01
  9.908700000E-02  1.711195023E-01
  3.468000000E-02  7.456244600E-03
   p   9
  8.333315500E+01  1.344656000E-03
  1.955761100E+01  1.023555500E-02
  6.080365000E+00  4.520067100E-02
  2.179317000E+00  1.410756198E-01
  8.651500000E-01  3.047388085E-01
  3.619440000E-01  3.995281011E-01
  1.547400000E-01  2.719163432E-01
  6.542900000E-02  5.857669330E-02
  2.290000000E-02 -1.263813000E-04
 
[MO]
Sym=     1a  
Ene=   -13.6810
Spin= Alpha
Occup=    2.00000
   1         0.68823115
   2        -0.00617062
   3         0.00000000
   4         0.00000000
   5         0.02027943
   6         0.68823115
   7        -0.00617062
   8         0.00000000
   9        -0.00000000
  10        -0.02027943
Sym=     2a  
Ene=   -13.2430
Spin= Alpha
Occup=    2.00000
   1        -0.73155183
   2        -0.02539111
   3         0.00000000
   4         0.00000000
   5        -0.01328271
   6         0.73155183
   7         0.02539111
   8         0.00000000
   9        -0.00000000
  10        -0.01328271
Sym=     3a  
Ene=    -2.2482
Spin= Alpha
Occup=    2.00000
   1        -0.20109744
   2         0.39652068
   3         0.00000000
   4         0.00000000
   5         0.43221805
   6        -0.20109744
   7         0.39652068
   8        -0.00000000
   9        -0.00000000
  10        -0.43221805
Sym=     4a  
Ene=    -1.8103
Spin= Alpha
Occup=    2.00000
   1         0.00000000
   2        -0.00000000
   3        -0.20380721
   4         0.49590805
   5         0.00000000
   6         0.00000000
   7         0.00000000
   8        -0.20380721
   9         0.49590805
  10         0.00000000
Sym=     5a  
Ene=    -1.8096
Spin= Alpha
Occup=    1.99668
   1         0.00000000
   2        -0.00000000
   3         0.49590805
   4         0.20380721
   5        -0.00000000
   6         0.00000000
   7         0.00000000
   8         0.49590805
   9         0.20380721
  10         0.00000000
Sym=     6a  
Ene=    -0.0002
Spin= Alpha
Occup=    0.00332
   1        -0.24081677
   2        -1.33374265
   3        -0.00000000
   4        -0.00000000
   5         0.13438910
   6         0.24081677
   7         1.33374265
   8         0.00000000
   9        -0.00000000
  10         0.13438910
Sym=     7a  
Ene=    -1.0505
Spin= Alpha
Occup=    0.00000
   1         0.18567477
   2         0.40896413
   3        -0.00000000
   4        -0.00000000
   5        -0.88991440
   6         0.18567477
   7         0.40896413
   8         0.00000000
   9        -0.00000000
  10         0.88991440
Sym=     8a  
Ene=    -0.4301
Spin= Alpha
Occup=    0.00000
   1        -0.00000000
   2        -0.00000000
   3         0.52649355
   4        -1.28107532
   5        -0.00000000
   6         0.00000000
   7         0.00000000
   8        -0.52649355
   9         1.28107532
  10        -0.00000000
Sym=     9a  
Ene=    -0.4301
Spin= Alpha
Occup=    0.00000
   1        -0.00000000
   2         0.00000000
   3        -1.28107532
   4        -0.52649355
   5         0.00000000
   6        -0.00000000
   7        -0.00000000
   8         1.28107532
   9         0.52649355
  10        -0.00000000
Sym=    10a  
Ene=     4.2920
Spin= Alpha
Occup=    0.00000
   1        -2.88688749
   2        -8.92404758
   3        -0.00000000
   4         0.00000000
   5        -3.37901910
   6         2.88688749
   7         8.92404758
   8         0.00000000
   9         0.00000000
  10        -3.37901910
