[Molden Format]
[N_Atoms]
                     2
[Atoms] (AU)
LI1         1      3           0.00000000      0.00000000      0.00000000
LI2         2      3           0.00000000      0.00000000      4.72431531
[Charge] (Mulliken)
  7.123190925995004E-013
 -7.092104681305500E-013
[GTO] (AU)
   1
   s  14
  9.497934400E+03  9.668999974E-05
  1.416811200E+03  6.087099984E-04
  3.214599400E+02  3.101519992E-03
  9.112416300E+01  1.266904997E-02
  2.999989100E+01  4.248012989E-02
  1.101763100E+01  1.150183297E-01
  4.372801000E+00  2.398650094E-01
  1.831256000E+00  3.584300090E-01
  8.022610000E-01  3.048527792E-01
  3.626480000E-01  8.824261976E-02
  1.139950000E-01 -8.445899977E-04
  5.123700000E-02 -7.943959979E-03
  2.246800000E-02 -3.764419990E-03
  7.860000000E-03 -8.868999976E-05
   s  14
  9.497934400E+03 -1.244999993E-05
  1.416811200E+03 -7.838999954E-05
  3.214599400E+02 -4.007099976E-04
  9.112416300E+01 -1.645249990E-03
  2.999989100E+01 -5.634599967E-03
  1.101763100E+01 -1.590780991E-02
  4.372801000E+00 -3.612581979E-02
  1.831256000E+00 -6.459927962E-02
  8.022610000E-01 -1.008321794E-01
  3.626480000E-01 -9.757613942E-02
  1.139950000E-01  2.301215886E-01
  5.123700000E-02  6.102389764E-01
  2.246800000E-02  2.849406083E-01
  7.860000000E-03  4.026899976E-03
   p   9
  1.311950400E+01  1.524940000E-03
  3.077424200E+00  8.314830000E-03
  1.098800500E+00  1.933203000E-02
  4.357784000E-01  4.934293000E-02
  1.802432000E-01  1.623554000E-01
  7.613330000E-02  3.847505400E-01
  3.254650000E-02  4.336100400E-01
  1.401820000E-02  1.287005900E-01
  4.906400000E-03 -1.018520000E-03
 
   2
   s  14
  9.497934400E+03  9.668999974E-05
  1.416811200E+03  6.087099984E-04
  3.214599400E+02  3.101519992E-03
  9.112416300E+01  1.266904997E-02
  2.999989100E+01  4.248012989E-02
  1.101763100E+01  1.150183297E-01
  4.372801000E+00  2.398650094E-01
  1.831256000E+00  3.584300090E-01
  8.022610000E-01  3.048527792E-01
  3.626480000E-01  8.824261976E-02
  1.139950000E-01 -8.445899977E-04
  5.123700000E-02 -7.943959979E-03
  2.246800000E-02 -3.764419990E-03
  7.860000000E-03 -8.868999976E-05
   s  14
  9.497934400E+03 -1.244999993E-05
  1.416811200E+03 -7.838999954E-05
  3.214599400E+02 -4.007099976E-04
  9.112416300E+01 -1.645249990E-03
  2.999989100E+01 -5.634599967E-03
  1.101763100E+01 -1.590780991E-02
  4.372801000E+00 -3.612581979E-02
  1.831256000E+00 -6.459927962E-02
  8.022610000E-01 -1.008321794E-01
  3.626480000E-01 -9.757613942E-02
  1.139950000E-01  2.301215886E-01
  5.123700000E-02  6.102389764E-01
  2.246800000E-02  2.849406083E-01
  7.860000000E-03  4.026899976E-03
   p   9
  1.311950400E+01  1.524940000E-03
  3.077424200E+00  8.314830000E-03
  1.098800500E+00  1.933203000E-02
  4.357784000E-01  4.934293000E-02
  1.802432000E-01  1.623554000E-01
  7.613330000E-02  3.847505400E-01
  3.254650000E-02  4.336100400E-01
  1.401820000E-02  1.287005900E-01
  4.906400000E-03 -1.018520000E-03
 
[MO]
Sym=     1a  
Ene=    -2.4530
Spin= Alpha
Occup=    1.00000
   1         0.70692634
   2         0.00938963
   3        -0.00000000
   4         0.00000000
   5        -0.00064056
   6         0.70692634
   7         0.00938963
   8         0.00000000
   9         0.00000000
  10         0.00064056
Sym=     1a  
Ene=    -2.4530
Spin= Beta
Occup=    1.00000
   1         0.70692634
   2         0.00938963
   3        -0.00000000
   4         0.00000000
   5        -0.00064056
   6         0.70692634
   7         0.00938963
   8         0.00000000
   9         0.00000000
  10         0.00064056
Sym=     2a  
Ene=    -2.4524
Spin= Alpha
Occup=    1.00000
   1        -0.70650861
   2        -0.00481646
   3        -0.00000000
   4         0.00000000
   5         0.00287215
   6         0.70650861
   7         0.00481646
   8         0.00000000
   9         0.00000000
  10         0.00287215
Sym=     2a  
Ene=    -2.4524
Spin= Beta
Occup=    1.00000
   1        -0.70650861
   2        -0.00481646
   3        -0.00000000
   4         0.00000000
   5         0.00287215
   6         0.70650861
   7         0.00481646
   8         0.00000000
   9         0.00000000
  10         0.00287215
Sym=     3a  
Ene=    -0.1851
Spin= Alpha
Occup=    1.00000
   1        -0.06907465
   2         0.50438958
   3         0.00000000
   4         0.00000000
   5         0.13595102
   6        -0.06907465
   7         0.50438958
   8         0.00000000
   9         0.00000000
  10        -0.13595102
Sym=     3a  
Ene=    -0.1851
Spin= Beta
Occup=    1.00000
   1        -0.06907465
   2         0.50438958
   3         0.00000000
   4         0.00000000
   5         0.13595102
   6        -0.06907465
   7         0.50438958
   8         0.00000000
   9         0.00000000
  10        -0.13595102
Sym=     4a  
Ene=     0.0231
Spin= Alpha
Occup=    0.00000
   1         0.03777456
   2        -0.41865384
   3        -0.00000000
   4         0.00000000
   5         0.46724138
   6        -0.03777456
   7         0.41865384
   8        -0.00000000
   9         0.00000000
  10         0.46724138
Sym=     4a  
Ene=     0.0231
Spin= Beta
Occup=    0.00000
   1         0.03777456
   2        -0.41865384
   3        -0.00000000
   4         0.00000000
   5         0.46724138
   6        -0.03777456
   7         0.41865384
   8        -0.00000000
   9         0.00000000
  10         0.46724138
Sym=     5a  
Ene=     0.0426
Spin= Alpha
Occup=    0.00000
   1        -0.00000000
   2        -0.00000000
   3         0.09593242
   4         0.55816086
   5         0.00000000
   6        -0.00000000
   7        -0.00000000
   8         0.09593242
   9         0.55816086
  10        -0.00000000
Sym=     5a  
Ene=     0.0426
Spin= Beta
Occup=    0.00000
   1        -0.00000000
   2        -0.00000000
   3         0.09593242
   4         0.55816086
   5         0.00000000
   6        -0.00000000
   7        -0.00000000
   8         0.09593242
   9         0.55816086
  10        -0.00000000
Sym=     6a  
Ene=     0.0426
Spin= Alpha
Occup=    0.00000
   1         0.00000000
   2         0.00000000
   3         0.55816086
   4        -0.09593242
   5         0.00000000
   6        -0.00000000
   7        -0.00000000
   8         0.55816086
   9        -0.09593242
  10         0.00000000
Sym=     6a  
Ene=     0.0426
Spin= Beta
Occup=    0.00000
   1         0.00000000
   2         0.00000000
   3         0.55816086
   4        -0.09593242
   5         0.00000000
   6        -0.00000000
   7        -0.00000000
   8         0.55816086
   9        -0.09593242
  10         0.00000000
Sym=     7a  
Ene=     0.0801
Spin= Alpha
Occup=    0.00000
   1         0.07627988
   2         0.35996323
   3         0.00000000
   4         0.00000000
   5        -0.77245844
   6         0.07627988
   7         0.35996323
   8        -0.00000000
   9         0.00000000
  10         0.77245844
Sym=     7a  
Ene=     0.0801
Spin= Beta
Occup=    0.00000
   1         0.07627988
   2         0.35996323
   3         0.00000000
   4         0.00000000
   5        -0.77245844
   6         0.07627988
   7         0.35996323
   8        -0.00000000
   9         0.00000000
  10         0.77245844
Sym=     8a  
Ene=     0.1355
Spin= Alpha
Occup=    0.00000
   1        -0.00000000
   2        -0.00000000
   3        -1.02624098
   4        -0.28330993
   5        -0.00000000
   6         0.00000000
   7         0.00000000
   8         1.02624098
   9         0.28330993
  10        -0.00000000
Sym=     8a  
Ene=     0.1355
Spin= Beta
Occup=    0.00000
   1        -0.00000000
   2        -0.00000000
   3        -1.02624098
   4        -0.28330993
   5        -0.00000000
   6         0.00000000
   7         0.00000000
   8         1.02624098
   9         0.28330993
  10        -0.00000000
Sym=     9a  
Ene=     0.1355
Spin= Alpha
Occup=    0.00000
   1         0.00000000
   2         0.00000000
   3         0.28330993
   4        -1.02624098
   5         0.00000000
   6        -0.00000000
   7        -0.00000000
   8        -0.28330993
   9         1.02624098
  10        -0.00000000
Sym=     9a  
Ene=     0.1355
Spin= Beta
Occup=    0.00000
   1         0.00000000
   2         0.00000000
   3         0.28330993
   4        -1.02624098
   5         0.00000000
   6        -0.00000000
   7        -0.00000000
   8        -0.28330993
   9         1.02624098
  10        -0.00000000
Sym=    10a  
Ene=     0.3235
Spin= Alpha
Occup=    0.00000
   1         0.47559527
   2         2.92659279
   3        -0.00000000
   4         0.00000000
   5         1.81986321
   6        -0.47559527
   7        -2.92659279
   8         0.00000000
   9        -0.00000000
  10         1.81986321
Sym=    10a  
Ene=     0.3235
Spin= Beta
Occup=    0.00000
   1         0.47559527
   2         2.92659279
   3        -0.00000000
   4         0.00000000
   5         1.81986321
   6        -0.47559527
   7        -2.92659279
   8         0.00000000
   9        -0.00000000
  10         1.81986321
