[Molden Format]
[N_Atoms]
                     2
[Atoms] (AU)
LI1         1      3           0.00000000      0.00000000      0.00000000
LI2         2      3           0.00000000      0.00000000      4.72431531
[Charge] (Mulliken)
  0.999945858023696     
   1.00005414197630     
[GTO] (AU)
   1
   s  14
  9.497934400E+03  9.668999974E-05
  1.416811200E+03  6.087099984E-04
  3.214599400E+02  3.101519992E-03
  9.112416300E+01  1.266904997E-02
  2.999989100E+01  4.248012989E-02
  1.101763100E+01  1.150183297E-01
  4.372801000E+00  2.398650094E-01
  1.831256000E+00  3.584300090E-01
  8.022610000E-01  3.048527792E-01
  3.626480000E-01  8.824261976E-02
  1.139950000E-01 -8.445899977E-04
  5.123700000E-02 -7.943959979E-03
  2.246800000E-02 -3.764419990E-03
  7.860000000E-03 -8.868999976E-05
   s  14
  9.497934400E+03 -1.244999993E-05
  1.416811200E+03 -7.838999954E-05
  3.214599400E+02 -4.007099976E-04
  9.112416300E+01 -1.645249990E-03
  2.999989100E+01 -5.634599967E-03
  1.101763100E+01 -1.590780991E-02
  4.372801000E+00 -3.612581979E-02
  1.831256000E+00 -6.459927962E-02
  8.022610000E-01 -1.008321794E-01
  3.626480000E-01 -9.757613942E-02
  1.139950000E-01  2.301215886E-01
  5.123700000E-02  6.102389764E-01
  2.246800000E-02  2.849406083E-01
  7.860000000E-03  4.026899976E-03
   p   9
  1.311950400E+01  1.524940000E-03
  3.077424200E+00  8.314830000E-03
  1.098800500E+00  1.933203000E-02
  4.357784000E-01  4.934293000E-02
  1.802432000E-01  1.623554000E-01
  7.613330000E-02  3.847505400E-01
  3.254650000E-02  4.336100400E-01
  1.401820000E-02  1.287005900E-01
  4.906400000E-03 -1.018520000E-03
 
   2
   s  14
  9.497934400E+03  9.668999974E-05
  1.416811200E+03  6.087099984E-04
  3.214599400E+02  3.101519992E-03
  9.112416300E+01  1.266904997E-02
  2.999989100E+01  4.248012989E-02
  1.101763100E+01  1.150183297E-01
  4.372801000E+00  2.398650094E-01
  1.831256000E+00  3.584300090E-01
  8.022610000E-01  3.048527792E-01
  3.626480000E-01  8.824261976E-02
  1.139950000E-01 -8.445899977E-04
  5.123700000E-02 -7.943959979E-03
  2.246800000E-02 -3.764419990E-03
  7.860000000E-03 -8.868999976E-05
   s  14
  9.497934400E+03 -1.244999993E-05
  1.416811200E+03 -7.838999954E-05
  3.214599400E+02 -4.007099976E-04
  9.112416300E+01 -1.645249990E-03
  2.999989100E+01 -5.634599967E-03
  1.101763100E+01 -1.590780991E-02
  4.372801000E+00 -3.612581979E-02
  1.831256000E+00 -6.459927962E-02
  8.022610000E-01 -1.008321794E-01
  3.626480000E-01 -9.757613942E-02
  1.139950000E-01  2.301215886E-01
  5.123700000E-02  6.102389764E-01
  2.246800000E-02  2.849406083E-01
  7.860000000E-03  4.026899976E-03
   p   9
  1.311950400E+01  1.524940000E-03
  3.077424200E+00  8.314830000E-03
  1.098800500E+00  1.933203000E-02
  4.357784000E-01  4.934293000E-02
  1.802432000E-01  1.623554000E-01
  7.613330000E-02  3.847505400E-01
  3.254650000E-02  4.336100400E-01
  1.401820000E-02  1.287005900E-01
  4.906400000E-03 -1.018520000E-03
 
[MO]
Sym=     1a  
Ene=    -3.0051
Spin= Alpha
Occup=    2.00000
   1        -0.00269735
   2        -0.00277642
   3        -0.00000000
   4         0.00000000
   5        -0.00091587
   6         1.00026246
   7         0.01415685
   8         0.00000000
   9         0.00000000
  10        -0.00366102
Sym=     2a  
Ene=    -3.0052
Spin= Alpha
Occup=    1.99998
   1        -1.00027683
   2        -0.01440717
   3        -0.00000000
   4        -0.00000000
   5        -0.00378155
   6        -0.00092436
   7         0.00288669
   8        -0.00000000
   9         0.00000000
  10        -0.00095191
Sym=     3a  
Ene=    -0.0009
Spin= Alpha
Occup=    0.00002
   1         0.13660412
   2         1.84846025
   3        -0.00000000
   4         0.00000000
   5         0.86536848
   6        -0.26732466
   7        -1.20082550
   8        -0.00000000
   9        -0.00000000
  10         0.40468312
Sym=     4a  
Ene=    -0.3454
Spin= Alpha
Occup=    0.00000
   1        -0.12757941
   2        -0.76383912
   3         0.00000000
   4        -0.00000000
   5         0.14975012
   6         0.02820955
   7         1.21281362
   8         0.00000000
   9        -0.00000000
  10        -0.22976982
Sym=     5a  
Ene=    -0.3152
Spin= Alpha
Occup=    0.00000
   1        -0.00000000
   2        -0.00000000
   3         0.11150535
   4         0.55529482
   5         0.00000000
   6        -0.00000000
   7         0.00000000
   8         0.11149171
   9         0.55522694
  10        -0.00000000
Sym=     6a  
Ene=    -0.3152
Spin= Alpha
Occup=    0.00000
   1        -0.00000000
   2        -0.00000000
   3        -0.55529482
   4         0.11150535
   5         0.00000000
   6         0.00000000
   7         0.00000000
   8        -0.55522694
   9         0.11149171
  10        -0.00000000
Sym=     7a  
Ene=    -0.2746
Spin= Alpha
Occup=    0.00000
   1        -0.06132035
   2        -0.45017926
   3        -0.00000000
   4         0.00000000
   5         0.71211511
   6        -0.06074479
   7        -0.47896055
   8         0.00000000
   9        -0.00000000
  10        -0.73084837
Sym=     8a  
Ene=    -0.2371
Spin= Alpha
Occup=    0.00000
   1        -0.00000000
   2         0.00000000
   3        -0.96697905
   4        -0.44536208
   5        -0.00000000
   6         0.00000000
   7         0.00000000
   8         0.96701250
   9         0.44537749
  10        -0.00000000
Sym=     9a  
Ene=    -0.2371
Spin= Alpha
Occup=    0.00000
   1         0.00000000
   2        -0.00000000
   3        -0.44536208
   4         0.96697905
   5         0.00000000
   6         0.00000000
   7         0.00000000
   8         0.44537749
   9        -0.96701250
  10         0.00000000
Sym=    10a  
Ene=    -0.1161
Spin= Alpha
Occup=    0.00000
   1        -0.44480173
   2        -2.21837282
   3         0.00000000
   4         0.00000000
   5        -1.69321860
   6         0.40079041
   7         2.44577174
   8        -0.00000000
   9        -0.00000000
  10        -1.84246676
