[Molden Format]
[N_Atoms]
                     2
[Atoms] (AU)
LI1         1      3           0.00000000      0.00000000      0.00000000
LI2         2      3           0.00000000      0.00000000      4.72431531
[Charge] (Mulliken)
  4.058975378029572E-013
 -4.045652701734070E-013
[GTO] (AU)
   1
   s  14
  9.497934400E+03  9.668999974E-05
  1.416811200E+03  6.087099984E-04
  3.214599400E+02  3.101519992E-03
  9.112416300E+01  1.266904997E-02
  2.999989100E+01  4.248012989E-02
  1.101763100E+01  1.150183297E-01
  4.372801000E+00  2.398650094E-01
  1.831256000E+00  3.584300090E-01
  8.022610000E-01  3.048527792E-01
  3.626480000E-01  8.824261976E-02
  1.139950000E-01 -8.445899977E-04
  5.123700000E-02 -7.943959979E-03
  2.246800000E-02 -3.764419990E-03
  7.860000000E-03 -8.868999976E-05
   s  14
  9.497934400E+03 -1.244999993E-05
  1.416811200E+03 -7.838999954E-05
  3.214599400E+02 -4.007099976E-04
  9.112416300E+01 -1.645249990E-03
  2.999989100E+01 -5.634599967E-03
  1.101763100E+01 -1.590780991E-02
  4.372801000E+00 -3.612581979E-02
  1.831256000E+00 -6.459927962E-02
  8.022610000E-01 -1.008321794E-01
  3.626480000E-01 -9.757613942E-02
  1.139950000E-01  2.301215886E-01
  5.123700000E-02  6.102389764E-01
  2.246800000E-02  2.849406083E-01
  7.860000000E-03  4.026899976E-03
   p   9
  1.311950400E+01  1.524940000E-03
  3.077424200E+00  8.314830000E-03
  1.098800500E+00  1.933203000E-02
  4.357784000E-01  4.934293000E-02
  1.802432000E-01  1.623554000E-01
  7.613330000E-02  3.847505400E-01
  3.254650000E-02  4.336100400E-01
  1.401820000E-02  1.287005900E-01
  4.906400000E-03 -1.018520000E-03
 
   2
   s  14
  9.497934400E+03  9.668999974E-05
  1.416811200E+03  6.087099984E-04
  3.214599400E+02  3.101519992E-03
  9.112416300E+01  1.266904997E-02
  2.999989100E+01  4.248012989E-02
  1.101763100E+01  1.150183297E-01
  4.372801000E+00  2.398650094E-01
  1.831256000E+00  3.584300090E-01
  8.022610000E-01  3.048527792E-01
  3.626480000E-01  8.824261976E-02
  1.139950000E-01 -8.445899977E-04
  5.123700000E-02 -7.943959979E-03
  2.246800000E-02 -3.764419990E-03
  7.860000000E-03 -8.868999976E-05
   s  14
  9.497934400E+03 -1.244999993E-05
  1.416811200E+03 -7.838999954E-05
  3.214599400E+02 -4.007099976E-04
  9.112416300E+01 -1.645249990E-03
  2.999989100E+01 -5.634599967E-03
  1.101763100E+01 -1.590780991E-02
  4.372801000E+00 -3.612581979E-02
  1.831256000E+00 -6.459927962E-02
  8.022610000E-01 -1.008321794E-01
  3.626480000E-01 -9.757613942E-02
  1.139950000E-01  2.301215886E-01
  5.123700000E-02  6.102389764E-01
  2.246800000E-02  2.849406083E-01
  7.860000000E-03  4.026899976E-03
   p   9
  1.311950400E+01  1.524940000E-03
  3.077424200E+00  8.314830000E-03
  1.098800500E+00  1.933203000E-02
  4.357784000E-01  4.934293000E-02
  1.802432000E-01  1.623554000E-01
  7.613330000E-02  3.847505400E-01
  3.254650000E-02  4.336100400E-01
  1.401820000E-02  1.287005900E-01
  4.906400000E-03 -1.018520000E-03
 
[MO]
Sym=     1a  
Ene=    -2.4580
Spin= Alpha
Occup=    2.00000
   1         0.70727478
   2         0.00672793
   3        -0.00000000
   4         0.00000000
   5        -0.00131401
   6         0.70727478
   7         0.00672793
   8         0.00000000
   9        -0.00000000
  10         0.00131401
Sym=     2a  
Ene=    -2.4574
Spin= Alpha
Occup=    2.00000
   1        -0.70655345
   2        -0.00508086
   3        -0.00000000
   4         0.00000000
   5         0.00269487
   6         0.70655345
   7         0.00508086
   8         0.00000000
   9        -0.00000000
  10         0.00269487
Sym=     3a  
Ene=    -0.1788
Spin= Alpha
Occup=    1.90058
   1        -0.06569043
   2         0.50290785
   3        -0.00000000
   4        -0.00000000
   5         0.13920538
   6        -0.06569043
   7         0.50290785
   8         0.00000000
   9        -0.00000000
  10        -0.13920538
Sym=     4a  
Ene=    -0.0000
Spin= Alpha
Occup=    0.09942
   1        -0.00000000
   2        -0.00000000
   3         0.52303525
   4        -0.21721118
   5        -0.00000000
   6         0.00000000
   7         0.00000000
   8         0.52303525
   9        -0.21721118
  10         0.00000000
Sym=     5a  
Ene=     0.0226
Spin= Alpha
Occup=    0.00000
   1         0.03778712
   2        -0.41849971
   3        -0.00000000
   4        -0.00000000
   5         0.46733733
   6        -0.03778712
   7         0.41849971
   8        -0.00000000
   9         0.00000000
  10         0.46733733
Sym=     6a  
Ene=     0.0415
Spin= Alpha
Occup=    0.00000
   1        -0.00000000
   2        -0.00000000
   3         0.21721118
   4         0.52303525
   5         0.00000000
   6        -0.00000000
   7        -0.00000000
   8         0.21721118
   9         0.52303525
  10        -0.00000000
Sym=     7a  
Ene=     0.0785
Spin= Alpha
Occup=    0.00000
   1         0.07603899
   2         0.36208973
   3         0.00000000
   4        -0.00000000
   5        -0.77187776
   6         0.07603899
   7         0.36208973
   8        -0.00000000
   9         0.00000000
  10         0.77187776
Sym=     8a  
Ene=     0.1331
Spin= Alpha
Occup=    0.00000
   1         0.00000000
   2        -0.00000000
   3        -0.98321449
   4         0.40831890
   5        -0.00000000
   6         0.00000000
   7         0.00000000
   8         0.98321449
   9        -0.40831890
  10         0.00000000
Sym=     9a  
Ene=     0.1336
Spin= Alpha
Occup=    0.00000
   1         0.00000000
   2         0.00000000
   3        -0.40831890
   4        -0.98321449
   5         0.00000000
   6         0.00000000
   7        -0.00000000
   8         0.40831890
   9         0.98321449
  10        -0.00000000
Sym=    10a  
Ene=     0.3213
Spin= Alpha
Occup=    0.00000
   1        -0.47552766
   2        -2.92661438
   3         0.00000000
   4        -0.00000000
   5        -1.81983884
   6         0.47552766
   7         2.92661438
   8        -0.00000000
   9         0.00000000
  10        -1.81983884
