[Molden Format]
[N_Atoms]
                     2
[Atoms] (AU)
LI1         1      3           0.00000000      0.00000000      0.00000000
LI2         2      3           0.00000000      0.00000000      4.72431531
[Charge] (Mulliken)
  0.000000000000000E+000
  0.000000000000000E+000
[GTO] (AU)
   1
   s  14
  9.497934400E+03  9.668999974E-05
  1.416811200E+03  6.087099984E-04
  3.214599400E+02  3.101519992E-03
  9.112416300E+01  1.266904997E-02
  2.999989100E+01  4.248012989E-02
  1.101763100E+01  1.150183297E-01
  4.372801000E+00  2.398650094E-01
  1.831256000E+00  3.584300090E-01
  8.022610000E-01  3.048527792E-01
  3.626480000E-01  8.824261976E-02
  1.139950000E-01 -8.445899977E-04
  5.123700000E-02 -7.943959979E-03
  2.246800000E-02 -3.764419990E-03
  7.860000000E-03 -8.868999976E-05
   s  14
  9.497934400E+03 -1.244999993E-05
  1.416811200E+03 -7.838999954E-05
  3.214599400E+02 -4.007099976E-04
  9.112416300E+01 -1.645249990E-03
  2.999989100E+01 -5.634599967E-03
  1.101763100E+01 -1.590780991E-02
  4.372801000E+00 -3.612581979E-02
  1.831256000E+00 -6.459927962E-02
  8.022610000E-01 -1.008321794E-01
  3.626480000E-01 -9.757613942E-02
  1.139950000E-01  2.301215886E-01
  5.123700000E-02  6.102389764E-01
  2.246800000E-02  2.849406083E-01
  7.860000000E-03  4.026899976E-03
   p   9
  1.311950400E+01  1.524940000E-03
  3.077424200E+00  8.314830000E-03
  1.098800500E+00  1.933203000E-02
  4.357784000E-01  4.934293000E-02
  1.802432000E-01  1.623554000E-01
  7.613330000E-02  3.847505400E-01
  3.254650000E-02  4.336100400E-01
  1.401820000E-02  1.287005900E-01
  4.906400000E-03 -1.018520000E-03
 
   2
   s  14
  9.497934400E+03  9.668999974E-05
  1.416811200E+03  6.087099984E-04
  3.214599400E+02  3.101519992E-03
  9.112416300E+01  1.266904997E-02
  2.999989100E+01  4.248012989E-02
  1.101763100E+01  1.150183297E-01
  4.372801000E+00  2.398650094E-01
  1.831256000E+00  3.584300090E-01
  8.022610000E-01  3.048527792E-01
  3.626480000E-01  8.824261976E-02
  1.139950000E-01 -8.445899977E-04
  5.123700000E-02 -7.943959979E-03
  2.246800000E-02 -3.764419990E-03
  7.860000000E-03 -8.868999976E-05
   s  14
  9.497934400E+03 -1.244999993E-05
  1.416811200E+03 -7.838999954E-05
  3.214599400E+02 -4.007099976E-04
  9.112416300E+01 -1.645249990E-03
  2.999989100E+01 -5.634599967E-03
  1.101763100E+01 -1.590780991E-02
  4.372801000E+00 -3.612581979E-02
  1.831256000E+00 -6.459927962E-02
  8.022610000E-01 -1.008321794E-01
  3.626480000E-01 -9.757613942E-02
  1.139950000E-01  2.301215886E-01
  5.123700000E-02  6.102389764E-01
  2.246800000E-02  2.849406083E-01
  7.860000000E-03  4.026899976E-03
   p   9
  1.311950400E+01  1.524940000E-03
  3.077424200E+00  8.314830000E-03
  1.098800500E+00  1.933203000E-02
  4.357784000E-01  4.934293000E-02
  1.802432000E-01  1.623554000E-01
  7.613330000E-02  3.847505400E-01
  3.254650000E-02  4.336100400E-01
  1.401820000E-02  1.287005900E-01
  4.906400000E-03 -1.018520000E-03
 
[MO]
Sym=     1a  
Ene=    -2.4829
Spin= Alpha
Occup=    2.00000
   1        -0.70620802
   2         0.00444843
   3         0.00000000
   4         0.00000000
   5        -0.00000000
   6         0.70620802
   7        -0.00444843
   8        -0.00000000
   9        -0.00000000
  10         0.00000000
Sym=     2a  
Ene=    -2.4753
Spin= Alpha
Occup=    2.00000
   1         0.70724765
   2         0.00496057
   3        -0.00000000
   4         0.00000000
   5         0.00000000
   6         0.70724765
   7         0.00496057
   8         0.00000000
   9        -0.00000000
  10         0.00000000
Sym=     3a  
Ene=    -0.3138
Spin= Alpha
Occup=    2.00000
   1        -0.04948266
   2         0.55920171
   3        -0.00000000
   4        -0.00000000
   5        -0.00000000
   6        -0.04948266
   7         0.55920171
   8        -0.00000000
   9         0.00000000
  10        -0.00000000
Sym=     4a  
Ene=    -0.0764
Spin= Alpha
Occup=    0.00000
   1        -0.09006347
   2        -1.13331377
   3        -0.00000000
   4        -0.00000000
   5         0.00000000
   6         0.09006347
   7         1.13331377
   8         0.00000000
   9         0.00000000
  10         0.00000000
Sym=     5a  
Ene=     3.1297
Spin= Alpha
Occup=    0.00000
   1         0.00000000
   2        -0.00000000
   3        -0.00000000
   4         0.56634492
   5         0.00000000
   6        -0.00000000
   7         0.00000000
   8         0.00000000
   9         0.56634492
  10         0.00000000
Sym=     6a  
Ene=     3.1297
Spin= Alpha
Occup=    0.00000
   1        -0.00000000
   2         0.00000000
   3         0.56634492
   4        -0.00000000
   5        -0.00000000
   6        -0.00000000
   7        -0.00000000
   8         0.56634492
   9         0.00000000
  10        -0.00000000
Sym=     7a  
Ene=     3.2282
Spin= Alpha
Occup=    0.00000
   1         0.08767552
   2         0.26709434
   3         0.00000000
   4         0.00000000
   5        -0.78433101
   6         0.08767552
   7         0.26709434
   8        -0.00000000
   9        -0.00000000
  10         0.78433101
Sym=     8a  
Ene=     3.2474
Spin= Alpha
Occup=    0.00000
   1        -0.00000000
   2         0.00000000
   3         0.00000000
   4        -1.06462907
   5        -0.00000000
   6         0.00000000
   7        -0.00000000
   8        -0.00000000
   9         1.06462907
  10         0.00000000
Sym=     9a  
Ene=     3.2474
Spin= Alpha
Occup=    0.00000
   1        -0.00000000
   2         0.00000000
   3        -1.06462907
   4         0.00000000
   5        -0.00000000
   6         0.00000000
   7        -0.00000000
   8         1.06462907
   9        -0.00000000
  10        -0.00000000
Sym=    10a  
Ene=     3.4568
Spin= Alpha
Occup=    0.00000
   1         0.46896802
   2         2.73053469
   3        -0.00000000
   4         0.00000000
   5         1.87888926
   6        -0.46896802
   7        -2.73053469
   8         0.00000000
   9        -0.00000000
  10         1.87888926
