[Molden Format]
[N_Atoms]
                     2
[Atoms] (AU)
C1          1      6           0.00000000      0.00000000      0.00000000
F2          2      9           0.00000000      0.00000000      2.26767135
[Charge] (Mulliken)
  0.308920437654253     
 -0.308920437654283     
[GTO] (AU)
   1
   s  14
  5.055750100E+04  1.128874000E-04
  7.524785600E+03  5.295373000E-04
  1.694327600E+03  2.450038300E-03
  4.728227900E+02  1.005398470E-02
  1.517107500E+02  3.545398060E-02
  5.391874600E+01  1.044071086E-01
  2.065931100E+01  2.412894918E-01
  8.383976000E+00  3.834225483E-01
  3.577015000E+00  3.078514393E-01
  1.547118000E+00  6.872442990E-02
  6.130130000E-01  2.224445000E-04
  2.460680000E-01  1.976748900E-03
  9.908700000E-02  2.057859400E-03
  3.468000000E-02  4.182020000E-04
   s  14
  5.055750100E+04 -2.507420000E-05
  7.524785600E+03 -1.175945000E-04
  1.694327600E+03 -5.456275000E-04
  4.728227900E+02 -2.245077100E-03
  1.517107500E+02 -8.043471800E-03
  5.391874600E+01 -2.442588710E-02
  2.065931100E+01 -6.136791180E-02
  8.383976000E+00 -1.177767835E-01
  3.577015000E+00 -1.550487783E-01
  1.547118000E+00 -1.933316860E-02
  6.130130000E-01  3.996930678E-01
  2.460680000E-01  5.589420949E-01
  9.908700000E-02  1.711195023E-01
  3.468000000E-02  7.456244600E-03
   p   9
  8.333315500E+01  1.344656000E-03
  1.955761100E+01  1.023555500E-02
  6.080365000E+00  4.520067100E-02
  2.179317000E+00  1.410756198E-01
  8.651500000E-01  3.047388085E-01
  3.619440000E-01  3.995281011E-01
  1.547400000E-01  2.719163432E-01
  6.542900000E-02  5.857669330E-02
  2.290000000E-02 -1.263813000E-04
 
   2
   s  14
  1.031094600E+05  1.713099991E-04
  1.528100700E+04  7.123999962E-04
  3.441539200E+03  2.990479984E-03
  9.670948300E+02  1.164036994E-02
  3.140353400E+02  3.968642979E-02
  1.134423000E+02  1.128546094E-01
  4.464472700E+01  2.473650687E-01
  1.894287400E+01  3.672702681E-01
  8.532743000E+00  2.896286985E-01
  3.919401000E+00  7.786681959E-02
  1.568157000E+00  4.562139976E-03
  6.232900000E-01  2.468879987E-03
  2.408610000E-01  1.106309994E-03
  8.430100000E-02  1.739699991E-04
   s  14
  1.031094600E+05 -4.044999995E-05
  1.528100700E+04 -1.682299998E-04
  3.441539200E+03 -7.084299991E-04
  9.670948300E+02 -2.767999996E-03
  3.140353400E+02 -9.611379987E-03
  1.134423000E+02 -2.833957996E-02
  4.464472700E+01 -6.839343991E-02
  1.894287400E+01 -1.237379298E-01
  8.532743000E+00 -1.512859698E-01
  3.919401000E+00 -9.099909988E-03
  1.568157000E+00  3.716257695E-01
  6.232900000E-01  5.500214393E-01
  2.408610000E-01  2.092318697E-01
  8.430100000E-02  8.074639989E-03
   p   9
  2.453302900E+02  1.024860004E-03
  5.691900500E+01  8.344290032E-03
  1.760456800E+01  4.078927016E-02
  6.274995000E+00  1.351370605E-01
  2.447030000E+00  2.798830811E-01
  9.950600000E-01  3.597966414E-01
  4.039730000E-01  3.055347412E-01
  1.548100000E-01  1.354703905E-01
  5.418400000E-02  2.804449011E-02
 
[MO]
Sym=     1a  
Ene=   -26.4290
Spin= Alpha
Occup=    1.00000
   1        -0.00020341
   2        -0.00096497
   3         0.00000000
   4        -0.00000000
   5        -0.00063939
   6         1.00007318
   7        -0.00210076
   8        -0.00000000
   9        -0.00000000
  10        -0.00161412
Sym=     1a  
Ene=   -26.4230
Spin= Beta
Occup=    1.00000
   1        -0.00018267
   2        -0.00084871
   3         0.00000000
   4        -0.00000000
   5        -0.00055037
   6         1.00006255
   7        -0.00236543
   8        -0.00000000
   9        -0.00000000
  10        -0.00158547
Sym=     2a  
Ene=   -11.4380
Spin= Alpha
Occup=    1.00000
   1         1.00003102
   2        -0.00061004
   3         0.00000000
   4         0.00000000
   5         0.00375171
   6        -0.00048145
   7        -0.00170327
   8        -0.00000000
   9         0.00000000
  10        -0.00028029
Sym=     2a  
Ene=   -11.4120
Spin= Beta
Occup=    1.00000
   1         0.99996303
   2        -0.00341171
   3         0.00000000
   4        -0.00000000
   5         0.00327240
   6        -0.00035614
   7        -0.00077877
   8        -0.00000000
   9         0.00000000
  10        -0.00068681
Sym=     3a  
Ene=    -1.8109
Spin= Alpha
Occup=    1.00000
   1        -0.04362208
   2         0.12796145
   3        -0.00000000
   4         0.00000000
   5         0.11938759
   6        -0.01011122
   7         0.86364354
   8        -0.00000000
   9        -0.00000000
  10        -0.17774091
Sym=     3a  
Ene=    -1.7915
Spin= Beta
Occup=    1.00000
   1        -0.04363899
   2         0.10804389
   3        -0.00000000
   4         0.00000000
   5         0.11874411
   6        -0.00916511
   7         0.87307443
   8        -0.00000000
   9        -0.00000000
  10        -0.18124708
Sym=     4a  
Ene=    -0.9622
Spin= Alpha
Occup=    1.00000
   1         0.03820330
   2        -0.44918154
   3        -0.00000000
   4        -0.00000000
   5        -0.12877936
   6         0.02667394
   7         0.48171490
   8        -0.00000000
   9        -0.00000000
  10         0.70533856
Sym=     4a  
Ene=    -0.9237
Spin= Beta
Occup=    1.00000
   1         0.04429590
   2        -0.32696517
   3        -0.00000000
   4         0.00000000
   5        -0.15272703
   6         0.02383369
   7         0.44359054
   8        -0.00000000
   9        -0.00000000
  10         0.77922351
Sym=     5a  
Ene=    -0.8482
Spin= Alpha
Occup=    1.00000
   1         0.00000000
   2        -0.00000000
   3         0.17349810
   4         0.18926468
   5        -0.00000000
   6         0.00000000
   7         0.00000000
   8         0.60885805
   9         0.66418783
  10         0.00000000
Sym=     5a  
Ene=    -0.7872
Spin= Beta
Occup=    1.00000
   1        -0.00000000
   2         0.00000000
   3        -0.13823661
   4         0.12672089
   5        -0.00000000
   6        -0.00000000
   7        -0.00000000
   8        -0.68846924
   9         0.63111671
  10        -0.00000000
Sym=     6a  
Ene=    -0.7885
Spin= Alpha
Occup=    1.00000
   1        -0.00000000
   2         0.00000000
   3        -0.15278490
   4         0.14005725
   5        -0.00000000
   6        -0.00000000
   7        -0.00000000
   8        -0.68190483
   9         0.62509915
  10        -0.00000000
Sym=     6a  
Ene=    -0.7718
Spin= Beta
Occup=    1.00000
   1         0.00000000
   2        -0.00000000
   3         0.11159388
   4         0.12173494
   5        -0.00000000
   6         0.00000000
   7         0.00000000
   8         0.63763083
   9         0.69557533
  10         0.00000000
Sym=     7a  
Ene=    -0.5969
Spin= Alpha
Occup=    1.00000
   1         0.04207221
   2         0.86187701
   3         0.00000000
   4        -0.00000000
   5        -0.46404395
   6        -0.00138235
   7        -0.04998152
   8         0.00000000
   9        -0.00000000
  10         0.48874777
Sym=     7a  
Ene=    -0.5264
Spin= Beta
Occup=    1.00000
   1         0.03562883
   2         0.88477894
   3         0.00000000
   4         0.00000000
   5        -0.48256610
   6        -0.00123207
   7        -0.06505960
   8         0.00000000
   9        -0.00000000
  10         0.37481952
Sym=     8a  
Ene=    -0.4061
Spin= Alpha
Occup=    1.00000
   1         0.00000000
   2         0.00000000
   3        -0.67880154
   4        -0.74048741
   5         0.00000000
   6        -0.00000000
   7        -0.00000000
   8         0.34664823
   9         0.37814977
  10        -0.00000000
Sym=     8a  
Ene=     0.1336
Spin= Beta
Occup=    0.00000
   1         0.00000000
   2         0.00000000
   3        -0.75168701
   4         0.68906816
   5         0.00000000
   6        -0.00000000
   7        -0.00000000
   8         0.33189280
   9        -0.30424467
  10        -0.00000000
Sym=     9a  
Ene=     0.1010
Spin= Alpha
Occup=    0.00000
   1         0.00000000
   2         0.00000000
   3        -0.74886547
   4         0.68648167
   5         0.00000000
   6        -0.00000000
   7        -0.00000000
   8         0.34517897
   9        -0.31642404
  10        -0.00000000
Sym=     9a  
Ene=     0.1904
Spin= Beta
Occup=    0.00000
   1         0.00000000
   2         0.00000000
   3        -0.69167906
   4        -0.75453517
   5         0.00000000
   6        -0.00000000
   7        -0.00000000
   8         0.29034469
   9         0.31672967
  10        -0.00000000
Sym=    10a  
Ene=     0.5602
Spin= Alpha
Occup=    0.00000
   1         0.08333055
   2         0.70896523
   3         0.00000000
   4        -0.00000000
   5         1.11532770
   6        -0.09835399
   7        -0.80084750
   8        -0.00000000
   9         0.00000000
  10         0.75198912
Sym=    10a  
Ene=     0.6005
Spin= Beta
Occup=    0.00000
   1         0.08412206
   2         0.74978485
   3         0.00000000
   4        -0.00000000
   5         1.10446273
   6        -0.09928225
   7        -0.81149313
   8        -0.00000000
   9         0.00000000
  10         0.74359034
