[Molden Format]
[N_Atoms]
                     2
[Atoms] (AU)
LI1         1      3           0.00000000      0.00000000      0.00000000
LI2         2      3           0.00000000      0.00000000      1.51178090
[Charge] (Mulliken)
  9.285905377964809E-013
 -9.316991622654314E-013
[GTO] (AU)
   1
   s  14
  9.497934400E+03  9.668999974E-05
  1.416811200E+03  6.087099984E-04
  3.214599400E+02  3.101519992E-03
  9.112416300E+01  1.266904997E-02
  2.999989100E+01  4.248012989E-02
  1.101763100E+01  1.150183297E-01
  4.372801000E+00  2.398650094E-01
  1.831256000E+00  3.584300090E-01
  8.022610000E-01  3.048527792E-01
  3.626480000E-01  8.824261976E-02
  1.139950000E-01 -8.445899977E-04
  5.123700000E-02 -7.943959979E-03
  2.246800000E-02 -3.764419990E-03
  7.860000000E-03 -8.868999976E-05
   s  14
  9.497934400E+03 -1.244999993E-05
  1.416811200E+03 -7.838999954E-05
  3.214599400E+02 -4.007099976E-04
  9.112416300E+01 -1.645249990E-03
  2.999989100E+01 -5.634599967E-03
  1.101763100E+01 -1.590780991E-02
  4.372801000E+00 -3.612581979E-02
  1.831256000E+00 -6.459927962E-02
  8.022610000E-01 -1.008321794E-01
  3.626480000E-01 -9.757613942E-02
  1.139950000E-01  2.301215886E-01
  5.123700000E-02  6.102389764E-01
  2.246800000E-02  2.849406083E-01
  7.860000000E-03  4.026899976E-03
   p   9
  1.311950400E+01  1.524940000E-03
  3.077424200E+00  8.314830000E-03
  1.098800500E+00  1.933203000E-02
  4.357784000E-01  4.934293000E-02
  1.802432000E-01  1.623554000E-01
  7.613330000E-02  3.847505400E-01
  3.254650000E-02  4.336100400E-01
  1.401820000E-02  1.287005900E-01
  4.906400000E-03 -1.018520000E-03
 
   2
   s  14
  9.497934400E+03  9.668999974E-05
  1.416811200E+03  6.087099984E-04
  3.214599400E+02  3.101519992E-03
  9.112416300E+01  1.266904997E-02
  2.999989100E+01  4.248012989E-02
  1.101763100E+01  1.150183297E-01
  4.372801000E+00  2.398650094E-01
  1.831256000E+00  3.584300090E-01
  8.022610000E-01  3.048527792E-01
  3.626480000E-01  8.824261976E-02
  1.139950000E-01 -8.445899977E-04
  5.123700000E-02 -7.943959979E-03
  2.246800000E-02 -3.764419990E-03
  7.860000000E-03 -8.868999976E-05
   s  14
  9.497934400E+03 -1.244999993E-05
  1.416811200E+03 -7.838999954E-05
  3.214599400E+02 -4.007099976E-04
  9.112416300E+01 -1.645249990E-03
  2.999989100E+01 -5.634599967E-03
  1.101763100E+01 -1.590780991E-02
  4.372801000E+00 -3.612581979E-02
  1.831256000E+00 -6.459927962E-02
  8.022610000E-01 -1.008321794E-01
  3.626480000E-01 -9.757613942E-02
  1.139950000E-01  2.301215886E-01
  5.123700000E-02  6.102389764E-01
  2.246800000E-02  2.849406083E-01
  7.860000000E-03  4.026899976E-03
   p   9
  1.311950400E+01  1.524940000E-03
  3.077424200E+00  8.314830000E-03
  1.098800500E+00  1.933203000E-02
  4.357784000E-01  4.934293000E-02
  1.802432000E-01  1.623554000E-01
  7.613330000E-02  3.847505400E-01
  3.254650000E-02  4.336100400E-01
  1.401820000E-02  1.287005900E-01
  4.906400000E-03 -1.018520000E-03
 
[MO]
Sym=     1a  
Ene=    -3.1243
Spin= Alpha
Occup=    2.00000
   1         0.64765477
   2        -0.00349216
   3        -0.00000000
   4         0.00000000
   5        -0.00793072
   6         0.64765477
   7        -0.00349216
   8         0.00000000
   9        -0.00000000
  10         0.00793072
Sym=     2a  
Ene=    -2.5155
Spin= Alpha
Occup=    2.00000
   1        -0.75159760
   2         0.15802324
   3        -0.00000000
   4         0.00000000
   5         0.03027072
   6         0.75159760
   7        -0.15802324
   8         0.00000000
   9        -0.00000000
  10         0.03027072
Sym=     3a  
Ene=    -0.2233
Spin= Alpha
Occup=    1.81788
   1        -0.07083936
   2         0.50494712
   3         0.00000000
   4        -0.00000000
   5         0.06739840
   6        -0.07083936
   7         0.50494712
   8         0.00000000
   9        -0.00000000
  10        -0.06739840
Sym=     4a  
Ene=    -0.0000
Spin= Alpha
Occup=    0.18212
   1         0.00000000
   2        -0.00000000
   3         0.46963495
   4        -0.19503458
   5        -0.00000000
   6         0.00000000
   7        -0.00000000
   8         0.46963495
   9        -0.19503458
  10         0.00000000
Sym=     5a  
Ene=    -0.0146
Spin= Alpha
Occup=    0.00000
   1         0.00000000
   2        -0.00000000
   3         0.19503458
   4         0.46963495
   5         0.00000000
   6        -0.00000000
   7         0.00000000
   8         0.19503458
   9         0.46963495
  10         0.00000000
Sym=     6a  
Ene=     0.0186
Spin= Alpha
Occup=    0.00000
   1         0.01523668
   2        -0.56772129
   3         0.00000000
   4        -0.00000000
   5         0.43821602
   6        -0.01523668
   7         0.56772129
   8        -0.00000000
   9        -0.00000000
  10         0.43821602
Sym=     7a  
Ene=     0.1982
Spin= Alpha
Occup=    0.00000
   1        -0.00000000
   2        -0.00000000
   3        -1.05183282
   4        -2.53276853
   5         0.00000000
   6         0.00000000
   7         0.00000000
   8         1.05183282
   9         2.53276853
  10        -0.00000000
Sym=     8a  
Ene=     0.1983
Spin= Alpha
Occup=    0.00000
   1        -0.00000000
   2        -0.00000000
   3        -2.53276853
   4         1.05183282
   5         0.00000000
   6        -0.00000000
   7        -0.00000000
   8         2.53276853
   9        -1.05183282
  10        -0.00000000
Sym=     9a  
Ene=     0.2386
Spin= Alpha
Occup=    0.00000
   1         0.32626039
   2         0.25488256
   3        -0.00000000
   4         0.00000000
   5        -1.99643447
   6         0.32626039
   7         0.25488256
   8         0.00000000
   9        -0.00000000
  10         1.99643447
Sym=    10a  
Ene=     1.7748
Spin= Alpha
Occup=    0.00000
   1        -2.67593336
   2       -11.25088505
   3        -0.00000000
   4         0.00000000
   5        -1.92204153
   6         2.67593336
   7        11.25088505
   8         0.00000000
   9        -0.00000000
  10        -1.92204153
