[Molden Format]
[N_Atoms]
                     2
[Atoms] (AU)
LI1         1      3           0.00000000      0.00000000      0.00000000
LI2         2      3           0.00000000      0.00000000      1.51178090
[Charge] (Mulliken)
 -1.199040866595169E-013
  1.163513729807164E-013
[GTO] (AU)
   1
   s  14
  9.497934400E+03  9.668999974E-05
  1.416811200E+03  6.087099984E-04
  3.214599400E+02  3.101519992E-03
  9.112416300E+01  1.266904997E-02
  2.999989100E+01  4.248012989E-02
  1.101763100E+01  1.150183297E-01
  4.372801000E+00  2.398650094E-01
  1.831256000E+00  3.584300090E-01
  8.022610000E-01  3.048527792E-01
  3.626480000E-01  8.824261976E-02
  1.139950000E-01 -8.445899977E-04
  5.123700000E-02 -7.943959979E-03
  2.246800000E-02 -3.764419990E-03
  7.860000000E-03 -8.868999976E-05
   s  14
  9.497934400E+03 -1.244999993E-05
  1.416811200E+03 -7.838999954E-05
  3.214599400E+02 -4.007099976E-04
  9.112416300E+01 -1.645249990E-03
  2.999989100E+01 -5.634599967E-03
  1.101763100E+01 -1.590780991E-02
  4.372801000E+00 -3.612581979E-02
  1.831256000E+00 -6.459927962E-02
  8.022610000E-01 -1.008321794E-01
  3.626480000E-01 -9.757613942E-02
  1.139950000E-01  2.301215886E-01
  5.123700000E-02  6.102389764E-01
  2.246800000E-02  2.849406083E-01
  7.860000000E-03  4.026899976E-03
   p   9
  1.311950400E+01  1.524940000E-03
  3.077424200E+00  8.314830000E-03
  1.098800500E+00  1.933203000E-02
  4.357784000E-01  4.934293000E-02
  1.802432000E-01  1.623554000E-01
  7.613330000E-02  3.847505400E-01
  3.254650000E-02  4.336100400E-01
  1.401820000E-02  1.287005900E-01
  4.906400000E-03 -1.018520000E-03
 
   2
   s  14
  9.497934400E+03  9.668999974E-05
  1.416811200E+03  6.087099984E-04
  3.214599400E+02  3.101519992E-03
  9.112416300E+01  1.266904997E-02
  2.999989100E+01  4.248012989E-02
  1.101763100E+01  1.150183297E-01
  4.372801000E+00  2.398650094E-01
  1.831256000E+00  3.584300090E-01
  8.022610000E-01  3.048527792E-01
  3.626480000E-01  8.824261976E-02
  1.139950000E-01 -8.445899977E-04
  5.123700000E-02 -7.943959979E-03
  2.246800000E-02 -3.764419990E-03
  7.860000000E-03 -8.868999976E-05
   s  14
  9.497934400E+03 -1.244999993E-05
  1.416811200E+03 -7.838999954E-05
  3.214599400E+02 -4.007099976E-04
  9.112416300E+01 -1.645249990E-03
  2.999989100E+01 -5.634599967E-03
  1.101763100E+01 -1.590780991E-02
  4.372801000E+00 -3.612581979E-02
  1.831256000E+00 -6.459927962E-02
  8.022610000E-01 -1.008321794E-01
  3.626480000E-01 -9.757613942E-02
  1.139950000E-01  2.301215886E-01
  5.123700000E-02  6.102389764E-01
  2.246800000E-02  2.849406083E-01
  7.860000000E-03  4.026899976E-03
   p   9
  1.311950400E+01  1.524940000E-03
  3.077424200E+00  8.314830000E-03
  1.098800500E+00  1.933203000E-02
  4.357784000E-01  4.934293000E-02
  1.802432000E-01  1.623554000E-01
  7.613330000E-02  3.847505400E-01
  3.254650000E-02  4.336100400E-01
  1.401820000E-02  1.287005900E-01
  4.906400000E-03 -1.018520000E-03
 
[MO]
Sym=     1a  
Ene=    -3.1210
Spin= Alpha
Occup=    1.00000
   1         0.64737099
   2        -0.00150537
   3        -0.00000000
   4         0.00000000
   5        -0.00766521
   6         0.64737099
   7        -0.00150537
   8         0.00000000
   9        -0.00000000
  10         0.00766521
Sym=     1a  
Ene=    -3.1210
Spin= Beta
Occup=    1.00000
   1         0.64737099
   2        -0.00150537
   3        -0.00000000
   4         0.00000000
   5        -0.00766521
   6         0.64737099
   7        -0.00150537
   8         0.00000000
   9        -0.00000000
  10         0.00766521
Sym=     2a  
Ene=    -2.5119
Spin= Alpha
Occup=    1.00000
   1        -0.75181186
   2         0.15711647
   3        -0.00000000
   4         0.00000000
   5         0.03012080
   6         0.75181186
   7        -0.15711647
   8         0.00000000
   9         0.00000000
  10         0.03012080
Sym=     2a  
Ene=    -2.5119
Spin= Beta
Occup=    1.00000
   1        -0.75181186
   2         0.15711647
   3        -0.00000000
   4         0.00000000
   5         0.03012080
   6         0.75181186
   7        -0.15711647
   8         0.00000000
   9         0.00000000
  10         0.03012080
Sym=     3a  
Ene=    -0.2374
Spin= Alpha
Occup=    1.00000
   1        -0.06858049
   2         0.50865118
   3        -0.00000000
   4         0.00000000
   5         0.03805795
   6        -0.06858049
   7         0.50865118
   8        -0.00000000
   9         0.00000000
  10        -0.03805795
Sym=     3a  
Ene=    -0.2374
Spin= Beta
Occup=    1.00000
   1        -0.06858049
   2         0.50865118
   3        -0.00000000
   4         0.00000000
   5         0.03805795
   6        -0.06858049
   7         0.50865118
   8        -0.00000000
   9         0.00000000
  10        -0.03805795
Sym=     4a  
Ene=    -0.0144
Spin= Alpha
Occup=    0.00000
   1         0.00000000
   2        -0.00000000
   3         0.06098010
   4         0.50485335
   5         0.00000000
   6        -0.00000000
   7         0.00000000
   8         0.06098010
   9         0.50485335
  10         0.00000000
Sym=     4a  
Ene=    -0.0144
Spin= Beta
Occup=    0.00000
   1         0.00000000
   2        -0.00000000
   3         0.06098010
   4         0.50485335
   5         0.00000000
   6        -0.00000000
   7         0.00000000
   8         0.06098010
   9         0.50485335
  10         0.00000000
Sym=     5a  
Ene=    -0.0144
Spin= Alpha
Occup=    0.00000
   1        -0.00000000
   2        -0.00000000
   3         0.50485335
   4        -0.06098010
   5         0.00000000
   6        -0.00000000
   7         0.00000000
   8         0.50485335
   9        -0.06098010
  10         0.00000000
Sym=     5a  
Ene=    -0.0144
Spin= Beta
Occup=    0.00000
   1        -0.00000000
   2        -0.00000000
   3         0.50485335
   4        -0.06098010
   5         0.00000000
   6        -0.00000000
   7         0.00000000
   8         0.50485335
   9        -0.06098010
  10         0.00000000
Sym=     6a  
Ene=     0.0185
Spin= Alpha
Occup=    0.00000
   1         0.01525383
   2        -0.56768012
   3        -0.00000000
   4        -0.00000000
   5         0.43822302
   6        -0.01525383
   7         0.56768012
   8        -0.00000000
   9        -0.00000000
  10         0.43822302
Sym=     6a  
Ene=     0.0185
Spin= Beta
Occup=    0.00000
   1         0.01525383
   2        -0.56768012
   3        -0.00000000
   4        -0.00000000
   5         0.43822302
   6        -0.01525383
   7         0.56768012
   8        -0.00000000
   9        -0.00000000
  10         0.43822302
Sym=     7a  
Ene=     0.2007
Spin= Alpha
Occup=    0.00000
   1        -0.00000000
   2        -0.00000000
   3        -2.49537921
   4         1.13769562
   5         0.00000000
   6        -0.00000000
   7        -0.00000000
   8         2.49537921
   9        -1.13769562
  10        -0.00000000
Sym=     7a  
Ene=     0.2007
Spin= Beta
Occup=    0.00000
   1        -0.00000000
   2        -0.00000000
   3        -2.49537921
   4         1.13769562
   5         0.00000000
   6        -0.00000000
   7        -0.00000000
   8         2.49537921
   9        -1.13769562
  10        -0.00000000
Sym=     8a  
Ene=     0.2007
Spin= Alpha
Occup=    0.00000
   1        -0.00000000
   2        -0.00000000
   3        -1.13769562
   4        -2.49537921
   5         0.00000000
   6         0.00000000
   7         0.00000000
   8         1.13769562
   9         2.49537921
  10        -0.00000000
Sym=     8a  
Ene=     0.2007
Spin= Beta
Occup=    0.00000
   1        -0.00000000
   2        -0.00000000
   3        -1.13769562
   4        -2.49537921
   5         0.00000000
   6         0.00000000
   7         0.00000000
   8         1.13769562
   9         2.49537921
  10        -0.00000000
Sym=     9a  
Ene=     0.2413
Spin= Alpha
Occup=    0.00000
   1         0.32730457
   2         0.24742801
   3        -0.00000000
   4         0.00000000
   5        -1.99721028
   6         0.32730457
   7         0.24742801
   8         0.00000000
   9        -0.00000000
  10         1.99721028
Sym=     9a  
Ene=     0.2413
Spin= Beta
Occup=    0.00000
   1         0.32730457
   2         0.24742801
   3        -0.00000000
   4         0.00000000
   5        -1.99721028
   6         0.32730457
   7         0.24742801
   8         0.00000000
   9        -0.00000000
  10         1.99721028
Sym=    10a  
Ene=     1.7780
Spin= Alpha
Occup=    0.00000
   1        -2.67587307
   2       -11.25089983
   3        -0.00000000
   4         0.00000000
   5        -1.92204228
   6         2.67587307
   7        11.25089983
   8        -0.00000000
   9        -0.00000000
  10        -1.92204228
Sym=    10a  
Ene=     1.7780
Spin= Beta
Occup=    0.00000
   1        -2.67587307
   2       -11.25089983
   3        -0.00000000
   4         0.00000000
   5        -1.92204228
   6         2.67587307
   7        11.25089983
   8        -0.00000000
   9        -0.00000000
  10        -1.92204228
