[Molden Format]
[N_Atoms]
                     2
[Atoms] (AU)
LI1         1      3           0.00000000      0.00000000      0.00000000
LI2         2      3           0.00000000      0.00000000      1.51178090
[Charge] (Mulliken)
   1.00507771434653     
  0.994922285653468     
[GTO] (AU)
   1
   s  14
  9.497934400E+03  9.668999974E-05
  1.416811200E+03  6.087099984E-04
  3.214599400E+02  3.101519992E-03
  9.112416300E+01  1.266904997E-02
  2.999989100E+01  4.248012989E-02
  1.101763100E+01  1.150183297E-01
  4.372801000E+00  2.398650094E-01
  1.831256000E+00  3.584300090E-01
  8.022610000E-01  3.048527792E-01
  3.626480000E-01  8.824261976E-02
  1.139950000E-01 -8.445899977E-04
  5.123700000E-02 -7.943959979E-03
  2.246800000E-02 -3.764419990E-03
  7.860000000E-03 -8.868999976E-05
   s  14
  9.497934400E+03 -1.244999993E-05
  1.416811200E+03 -7.838999954E-05
  3.214599400E+02 -4.007099976E-04
  9.112416300E+01 -1.645249990E-03
  2.999989100E+01 -5.634599967E-03
  1.101763100E+01 -1.590780991E-02
  4.372801000E+00 -3.612581979E-02
  1.831256000E+00 -6.459927962E-02
  8.022610000E-01 -1.008321794E-01
  3.626480000E-01 -9.757613942E-02
  1.139950000E-01  2.301215886E-01
  5.123700000E-02  6.102389764E-01
  2.246800000E-02  2.849406083E-01
  7.860000000E-03  4.026899976E-03
   p   9
  1.311950400E+01  1.524940000E-03
  3.077424200E+00  8.314830000E-03
  1.098800500E+00  1.933203000E-02
  4.357784000E-01  4.934293000E-02
  1.802432000E-01  1.623554000E-01
  7.613330000E-02  3.847505400E-01
  3.254650000E-02  4.336100400E-01
  1.401820000E-02  1.287005900E-01
  4.906400000E-03 -1.018520000E-03
 
   2
   s  14
  9.497934400E+03  9.668999974E-05
  1.416811200E+03  6.087099984E-04
  3.214599400E+02  3.101519992E-03
  9.112416300E+01  1.266904997E-02
  2.999989100E+01  4.248012989E-02
  1.101763100E+01  1.150183297E-01
  4.372801000E+00  2.398650094E-01
  1.831256000E+00  3.584300090E-01
  8.022610000E-01  3.048527792E-01
  3.626480000E-01  8.824261976E-02
  1.139950000E-01 -8.445899977E-04
  5.123700000E-02 -7.943959979E-03
  2.246800000E-02 -3.764419990E-03
  7.860000000E-03 -8.868999976E-05
   s  14
  9.497934400E+03 -1.244999993E-05
  1.416811200E+03 -7.838999954E-05
  3.214599400E+02 -4.007099976E-04
  9.112416300E+01 -1.645249990E-03
  2.999989100E+01 -5.634599967E-03
  1.101763100E+01 -1.590780991E-02
  4.372801000E+00 -3.612581979E-02
  1.831256000E+00 -6.459927962E-02
  8.022610000E-01 -1.008321794E-01
  3.626480000E-01 -9.757613942E-02
  1.139950000E-01  2.301215886E-01
  5.123700000E-02  6.102389764E-01
  2.246800000E-02  2.849406083E-01
  7.860000000E-03  4.026899976E-03
   p   9
  1.311950400E+01  1.524940000E-03
  3.077424200E+00  8.314830000E-03
  1.098800500E+00  1.933203000E-02
  4.357784000E-01  4.934293000E-02
  1.802432000E-01  1.623554000E-01
  7.613330000E-02  3.847505400E-01
  3.254650000E-02  4.336100400E-01
  1.401820000E-02  1.287005900E-01
  4.906400000E-03 -1.018520000E-03
 
[MO]
Sym=     1a  
Ene=    -3.6235
Spin= Alpha
Occup=    2.00000
   1         0.28022309
   2         0.05200454
   3        -0.00000000
   4         0.00000000
   5         0.00327135
   6         0.90104336
   7        -0.05505521
   8        -0.00000000
   9        -0.00000000
  10         0.01670943
Sym=     2a  
Ene=    -3.2190
Spin= Alpha
Occup=    1.99944
   1        -0.95391795
   2         0.13172331
   3         0.00000000
   4        -0.00000000
   5         0.02683798
   6         0.42429343
   7        -0.13054583
   8         0.00000000
   9        -0.00000000
  10         0.02220649
Sym=     3a  
Ene=     0.0007
Spin= Alpha
Occup=    0.00056
   1        -2.53958209
   2       -10.05413477
   3        -0.00000000
   4         0.00000000
   5        -1.28606379
   6         2.32838925
   7        10.14602052
   8        -0.00000000
   9        -0.00000000
  10        -2.40046012
Sym=     4a  
Ene=    -0.4264
Spin= Alpha
Occup=    0.00000
   1         0.20695490
   2         1.20905821
   3         0.00000000
   4        -0.00000000
   5         0.21960648
   6        -0.27188148
   7        -0.25973452
   8         0.00000000
   9         0.00000000
  10         0.49935060
Sym=     5a  
Ene=    -0.3912
Spin= Alpha
Occup=    0.00000
   1        -0.00000000
   2        -0.00000000
   3         0.07695688
   4         0.50290222
   5        -0.00000000
   6         0.00000000
   7         0.00000000
   8         0.07688624
   9         0.50244060
  10        -0.00000000
Sym=     6a  
Ene=    -0.3912
Spin= Alpha
Occup=    0.00000
   1        -0.00000000
   2        -0.00000000
   3         0.50290222
   4        -0.07695688
   5        -0.00000000
   6         0.00000000
   7         0.00000000
   8         0.50244060
   9        -0.07688624
  10        -0.00000000
Sym=     7a  
Ene=    -0.2830
Spin= Alpha
Occup=    0.00000
   1        -0.45323517
   2        -2.09453501
   3         0.00000000
   4         0.00000000
   5         1.10633871
   6         0.16910241
   7         1.51281714
   8         0.00000000
   9        -0.00000000
  10        -0.87579734
Sym=     8a  
Ene=    -0.2074
Spin= Alpha
Occup=    0.00000
   1         0.00000000
   2         0.00000000
   3        -2.51609412
   4         1.09100943
   5        -0.00000000
   6        -0.00000000
   7        -0.00000000
   8         2.51617357
   9        -1.09104387
  10         0.00000000
Sym=     9a  
Ene=    -0.2074
Spin= Alpha
Occup=    0.00000
   1        -0.00000000
   2        -0.00000000
   3        -1.09100943
   4        -2.51609412
   5         0.00000000
   6        -0.00000000
   7         0.00000000
   8         1.09104387
   9         2.51617357
  10        -0.00000000
Sym=    10a  
Ene=    -0.0023
Spin= Alpha
Occup=    0.00000
   1        -0.75528614
   2        -4.50500411
   3         0.00000000
   4        -0.00000000
   5        -2.22500469
   6         1.31941484
   7         4.68313558
   8         0.00000000
   9         0.00000000
  10         1.04794855
