   This run of MOLCAS is using the pymolcas driver

                             OPE
                             OPE          NMOL  CASOP  ENMOLC A   SO
                 OPE        NMOLC        AS  OP EN  MO LC     AS  OP
                OPENM       OL CA        SO  PE NM  OL CA     SOP EN
                OP EN      MO   LC       AS  OP ENMOL  CASO   PENMOL
                OP  EN     MO   LC       AS  OP EN     MO     LC ASO
               OP   E  NMOL  C  AS       OP  EN MO     LC     AS  OP
               OP  E   NMO   LC AS        OPEN  MO     LCASOP EN   M
               O  PEN   MO  LCA  SO
            OPE   NMO   L   CAS    OP
        OPENMOL  CASOP     ENMOL   CASOPE
     OPENMOLCA   SOPENMOLCASOPEN   MOLCASOPE
    OPENMOLCAS   OP           EN   MOL    CAS
    OPENMOLCAS       OP  ENM        O     LCA
    OPENMOLCAS    OPEN  MOLCASO     P  E  NMO
    OPENMOLCAS     OP               E  N  MOL
    OPENMOLCA   SO           PENM   O  L  CAS    OPEN    MO    LCAS
    OPENMOLCA   SOP           ENM   O  L  CAS   OP  EN  MOLC  AS   O
    OPENMOLCA   SOPE           NM      O  LCA   S      OP  EN MO
    OPENMOLC                AS         O  PEN   M      OL  CA  SOPE
    OPENMO        LCASOPE  NMOL        C  ASO   P      ENMOLC     AS
    OPE     NMO      LCA  SO     P     E   NM   OL  CA SO  PE N   MO
          OPENMOLCA            SOPE   NMO        LCAS  O    P  ENMO
     OPENMOLCASOPENMOLCASOPENMOLCASOPENMOLCA
        OPENMOLCASOPENMOLCASOPENMOLCASOPE
            OPENMOLCASOPENMOLCASOPENM
               OPENMOLCASOPENMOLCA        version: ea724fe96-dirty
                   OPENMOLCASO
                       OPE                tag:

 OpenMolcas is free software; you can redistribute it and/or modify it
 under the terms of the GNU Lesser General Public License version 2.1.
 OpenMolcas is distributed in the hope that it will be useful, but it
 is provided "as is" and without any express or implied warranties.
 For more details see the full text of the license in the file
 LICENSE or in <http://www.gnu.org/licenses/>.

                 Copyright (C) The OpenMolcas Authors
           For the author list and the recommended citation,
                   consult the file CONTRIBUTORS.md

           *************************************************
           * pymolcas version py2.28                       *
           *   build c4a6d18ded8cb6cad61d2372a9abd97c      *
           *   (after the EMIL interpreter by V. Veryazov) *
           *************************************************

configuration info
------------------
C Compiler ID: Intel
C flags: -std=gnu99
Fortran Compiler ID: Intel
Fortran flags: -fpp -i8 -r8 -heap-arrays
Definitions: _MOLCAS_;_I8_;_LINUX_
Parallel: OFF (GA=OFF)


   -------------------------------------------------------------------------------
  |
  |              Project: 2.47
  |       Submitted from: /home/grierjones/DDCASPT2/iron_oxo_DDCASPT2/cluster/2.47
  |         Scratch area: /tmp/2.47
  |      Save outputs to: /home/grierjones/DDCASPT2/iron_oxo_DDCASPT2/cluster/2.47
  |               Molcas: /home/grierjones/Test/build
  |
  | Scratch area is empty
  |
  |       MOLCAS_DRIVER = /usr/local/pymolcas
  | MOLCAS_KEEP_WORKDIR = NO
  |  MOLCAS_NEW_WORKDIR = YES
  |       MOLCAS_NPROCS = 1
  |        MOLCAS_PRINT = NORMAL
  |       MOLCAS_SOURCE = /home/grierjones/Test/build
  |    MOLCAS_STRUCTURE = 0
  |
   -------------------------------------------------------------------------------

++ ---------   Input file   ---------

&GATEWAY
coord=2.47.xyz
Basis = ANO-RCC-VDZP
Group = nosymm
Expert
End of Input

&SEWARD
End of Input

&SCF
UHF
charge
2
spin
5
FileOrb
/home/grierjones/DDCASPT2/iron_oxo_DDCASPT2/cluster/2.46/2.46.UhfOrb

>>> COPY $WorkDir/2.47.scf.h5 $CurrDir/

&RASSCF
Title= RASSCF
FileOrb
/home/grierjones/DDCASPT2/iron_oxo_DDCASPT2/cluster/2.46/2.46.RasOrb
NACTEL
10 0 0
RAS2
14
Symmetry
1
Spin
5
charge
2
orblisting
all
ITERation
300 200

>>> COPY $WorkDir/2.47.rasscf.h5 $CurrDir/

>>> COPY $WorkDir/GMJ_Fock_MO.csv $CurrDir/2.47.GMJ_Fock_MO.csv

>>> COPY $WorkDir/GMJ_PT2_Fock_MO.csv $CurrDir/2.47.GMJ_PT2_Fock_MO.csv

&MOTRA
Frozen=0
LUMORB

>>> COPY $WorkDir/GMJ_one_int_indx.csv $CurrDir/2.47.GMJ_one_int_indx.csv

>>> COPY $WorkDir/GMJ_one_int.csv $CurrDir/2.47.GMJ_one_int.csv

>>> COPY $WorkDir/GMJ_two_int_indx.csv $CurrDir/2.47.GMJ_two_int_indx.csv

>>> COPY $WorkDir/GMJ_two_int.csv $CurrDir/2.47.GMJ_two_int.csv

&CASPT2
Frozen
0
MAXITER
50

>>> FOREACH i IN (B,E,F,G,H)

  >>> FOREACH j IN (P,M)

    >>> IF (-FILE GMJ_e2_${i}_${j}.csv)

      >>> COPY $WorkDir/GMJ_RHS_${i}_${j}.csv $CurrDir/GMJ_RHS_${i}_${j}.csv

      >>> COPY $WorkDir/GMJ_IVECW_${i}_${j}.csv $CurrDir/GMJ_IVECW_${i}_${j}.csv

      >>> COPY $WorkDir/GMJ_IVECX_${i}_${j}.csv $CurrDir/GMJ_IVECX_${i}_${j}.csv

      >>> COPY $WorkDir/GMJ_IVECC2_${i}_${j}.csv $CurrDir/GMJ_IVECC2_${i}_${j}.csv

      >>> COPY $WorkDir/GMJ_e2_${i}_${j}.csv $CurrDir/GMJ_e2_${i}_${j}.csv

    >>> END IF

  >>> END FOREACH

>>> END FOREACH

>>> FOREACH i IN (A,C,D)

  >>> IF (-FILE GMJ_e2_$i.csv)

    >>> COPY $WorkDir/GMJ_RHS_$i.csv $CurrDir/GMJ_RHS_$i.csv

    >>> COPY $WorkDir/GMJ_IVECW_$i.csv $CurrDir/GMJ_IVECW_$i.csv

    >>> COPY $WorkDir/GMJ_IVECX_$i.csv $CurrDir/GMJ_IVECX_$i.csv

    >>> COPY $WorkDir/GMJ_IVECC2_$i.csv $CurrDir/GMJ_IVECC2_$i.csv

    >>> COPY $WorkDir/GMJ_e2_$i.csv $CurrDir/GMJ_e2_$i.csv

  >>> END IF

>>> END FOREACH

-- ----------------------------------

--- Start Module: gateway at Tue Dec 24 03:52:19 2024 ---
 
()()()()()()()()()()()()()()()()()()()()()()()()()()()()()()()()()()()()()()()()()()()()()()()()()()

                                              &GATEWAY

                                   only a single process is used
                       available to each process: 2.0 GB of memory, 1 thread?
()()()()()()()()()()()()()()()()()()()()()()()()()()()()()()()()()()()()()()()()()()()()()()()()()()
 
 ###############################################################################
 ###############################################################################
 ###                                                                         ###
 ###                                                                         ###
 ###                                                                         ###
 ###    WARNING: EXPERT option is ON!                                        ###
 ###                                                                         ###
 ###                                                                         ###
 ###############################################################################
 ###############################################################################
 
++    Symmetry information:
      ---------------------
 
                    Character Table for C1 
 
                             E  
                    a        1  x, y, xy, Rz, z, xz, Ry, yz, Rx, I
--
 
 
++    Basis set information:
      ----------------------
 
 
      Basis set label: O.ANO-RCC...3S2P1D.
 
      Electronic valence basis set:
      ------------------
      Associated Effective Charge   8.000000 au
      Associated Actual Charge      8.000000 au
      Nuclear Model: Point charge
 
      Shell  nPrim  nBasis  Cartesian Spherical Contaminant
         s      14       3        X                  
         p       9       2        X                  
         d       4       1                 X         
 
 
      Basis set label: FE.ANO-RCC...5S4P2D1F.
 
      Electronic valence basis set:
      ------------------
      Associated Effective Charge  26.000000 au
      Associated Actual Charge     26.000000 au
      Nuclear Model: Point charge
 
      Shell  nPrim  nBasis  Cartesian Spherical Contaminant
         s      21       5        X                  
         p      15       4        X                  
         d      10       2                 X         
         f       6       1                 X         
--
 
 
++    Molecular structure info:
      -------------------------
 
                    ************************************************ 
                    **** Cartesian Coordinates / Bohr, Angstrom **** 
                    ************************************************ 
 
     Center  Label                x              y              z                     x              y              z
        1      O1               0.000000       0.000000       3.846859              0.000000       0.000000       2.035670
        2      FE2              0.000000       0.000000      -0.823297              0.000000       0.000000      -0.435670
--
 
 
            Nuclear Potential Energy             44.53812904 au
 
 ###############################################################################
 ###############################################################################
 ###                                                                         ###
 ###                                                                         ###
 ###    There were warnings during the execution                             ###
 ###    Please, check the output with care!                                  ###
 ###                                                                         ###
 ###                                                                         ###
 ###############################################################################
 ###############################################################################
--- Stop Module: gateway at Tue Dec 24 03:52:19 2024 /rc=_RC_ALL_IS_WELL_ ---
*** files: xmldump
    saved to directory /home/grierjones/DDCASPT2/iron_oxo_DDCASPT2/cluster/2.47

--- Start Module: seward at Tue Dec 24 03:52:19 2024 ---
 
()()()()()()()()()()()()()()()()()()()()()()()()()()()()()()()()()()()()()()()()()()()()()()()()()()

                                              &SEWARD

                                   only a single process is used
                       available to each process: 2.0 GB of memory, 1 thread?
()()()()()()()()()()()()()()()()()()()()()()()()()()()()()()()()()()()()()()()()()()()()()()()()()()
 
 ###############################################################################
 ###############################################################################
 ###                                                                         ###
 ###                                                                         ###
 ###                                                                         ###
 ###    WARNING: EXPERT option is ON!                                        ###
 ###                                                                         ###
 ###                                                                         ###
 ###############################################################################
 ###############################################################################
               SEWARD will generate:
                  Multipole Moment integrals up to order  2
                  Kinetic Energy integrals
                  Nuclear Attraction integrals (point charge)
                  One-Electron Hamiltonian integrals
                  Velocity integrals
                  Relativistic Douglas-Kroll-Hess integrals:
                    - Parametrization         : EXP
                    - DKH order of Hamiltonian: 2
                    - DKH order of Properties : 0
                         - multipole moment operators
                         - electric potential operators
                         - contact operators
                  Atomic mean-field integrals
                  Two-Electron Repulsion integrals
 
                   Integrals are discarded if absolute value <: 0.10E-13
                   Integral cutoff threshold is set to       <: 0.10E-15
 
            Nuclear Potential Energy             44.53812904 au
 
 
      Basis set specifications :
      Symmetry species         a  
      Basis functions           48
 
 
  Input file to MOLDEN was generated!
 
 ###############################################################################
 ###############################################################################
 ###                                                                         ###
 ###                                                                         ###
 ###    There were warnings during the execution                             ###
 ###    Please, check the output with care!                                  ###
 ###                                                                         ###
 ###                                                                         ###
 ###############################################################################
 ###############################################################################
--- Stop Module: seward at Tue Dec 24 03:52:20 2024 /rc=_RC_ALL_IS_WELL_ ---
*** files: 2.47.GssOrb 2.47.guessorb.h5 2.47.guessorb.molden xmldump
    saved to directory /home/grierjones/DDCASPT2/iron_oxo_DDCASPT2/cluster/2.47
--- Module seward spent 1 second ---

*** symbolic link created: INPORB -> 2.47.GssOrb
--- Start Module: scf at Tue Dec 24 03:52:20 2024 ---
 
()()()()()()()()()()()()()()()()()()()()()()()()()()()()()()()()()()()()()()()()()()()()()()()()()()

                                                &SCF

                                   only a single process is used
                       available to each process: 2.0 GB of memory, 1 thread?
()()()()()()()()()()()()()()()()()()()()()()()()()()()()()()()()()()()()()()()()()()()()()()()()()()
 
 *** Possible bug in opening file
 *** isFreeUnit resets the unit number
++    Input section:
      --------------
 
      Header of the integral files:
      
       Integrals generated by seward 4.2.0  , Tue Dec 24 03:52:19 2024
 
 
      Cartesian coordinates in Angstrom:
      -----------------------------------------------------
      No.  Label        X            Y            Z        
      -----------------------------------------------------
       1   O1         0.00000000   0.00000000   2.03567000
       2   FE2        0.00000000   0.00000000  -0.43567000
      -----------------------------------------------------
      Nuclear repulsion energy =   44.53812904
--
 
++    Orbital specifications:
      -----------------------
 
      Symmetry species               1
                                     a
      Frozen orbitals                0
      Occupied orbitals alpha       18
      Occupied orbitals beta        14
      Secondary orbitals alpha      30
      Secondary orbitals beta       34
      Deleted orbitals               0
      Total number of orbitals      48
      Number of basis functions     48
--
 
      Molecular charge                           2.000
 
++    Optimization specifications:
      ----------------------------
 
      SCF Algorithm: Conventional USCF
      D(i)-D(i-1) density differences are used
      Number of density matrices in core                5
      Maximum number of NDDO SCF iterations           400
      Maximum number of HF SCF iterations             400
      Threshold for SCF energy change            0.10E-08
      Threshold for density matrix               0.10E-03
      Threshold for Fock matrix                  0.15E-03
      Threshold for linear dependence            0.10E-08
      Threshold at which DIIS is turned on       0.15E+00
      Threshold at which QNR/C2DIIS is turned on 0.75E-01
      Threshold for Norm(delta) (QNR/C2DIIS)     0.20E-04
      DIIS extrapolation of the SCF procedure
      All orbitals punched on: UHFORB
--
 
      Input vectors read from INPORB
      Orbital file label: * UHF orbitals
 
 
++ Convergence information
                               UHF SCF        iterations: Energy and convergence statistics
 
Iter     Tot. SCF        One-elec.       Two-elec.     Energy      Max Dij or  Max Fij      DNorm      TNorm      AccCon     Time
         Energy          Energy          Energy        Change      Delta Norm                                                in Sec.
 
 The total and one-electron energies are shifted by a value of      1000. a.u.
 
   1  -345.182793193  -930.596274431   540.875352198   0.00E+00    0.55E-02*   0.72E-03*    0.81E+01   0.19E+03   None         0.
   2  -345.182799487  -930.646238692   540.925310165  -0.63E-05*   0.12E-02*   0.80E-03*    0.98E-02   0.19E+03   EDIIS        0.
   3  -345.182800487  -930.581743065   540.860813539  -0.10E-05*   0.84E-03*   0.22E-03*    0.49E-02   0.19E+03   c2DIIS       0.
   4  -345.182803452  -930.615677923   540.894745432  -0.30E-05*   0.45E-02*   0.41E-03*    0.31E-02   0.19E+03   QNRc2DIIS    0.
   5  -345.182804413  -930.662291506   540.941358054  -0.96E-06*   0.27E-02*   0.63E-03*    0.51E-02   0.19E+03   QNRc2DIIS    0.
   6  -345.182806423  -930.654921756   540.933986294  -0.20E-05*   0.63E-02*   0.28E-03*    0.33E-02   0.19E+03   QNRc2DIIS    0.
   7  -345.182807768  -930.666087940   540.945151133  -0.13E-05*   0.61E-03*   0.77E-04     0.75E-02   0.19E+03   QNRc2DIIS    0.
   8  -345.182807803  -930.667181475   540.946244633  -0.36E-07*   0.55E-03*   0.48E-04     0.73E-03   0.19E+03   QNRc2DIIS    0.
   9  -345.182807826  -930.668737743   540.947800878  -0.23E-07*   0.30E-03*   0.24E-04     0.71E-03   0.19E+03   QNRc2DIIS    0.
  10  -345.182807838  -930.669287728   540.948350852  -0.11E-07*   0.55E-03*   0.53E-04     0.40E-03   0.19E+03   QNRc2DIIS    0.
  11  -345.182807822  -930.668557098   540.947620237   0.16E-07*   0.32E-04*   0.87E-05     0.74E-03   0.19E+03   QNRc2DIIS    0.
  12  -345.182807822  -930.668570477   540.947633615  -0.28E-09    0.51E-04*   0.50E-05     0.49E-04   0.19E+03   QNRc2DIIS    0.
  13  -345.182807823  -930.668538540   540.947601678  -0.24E-09    0.13E-04    0.16E-05     0.78E-04   0.19E+03   QNRc2DIIS    0.
 
       Convergence after 13 Macro Iterations
--
 
 *****************************************************************************************************************************
 *                                                                                                                           *
 *                                             SCF/KS-DFT Program, Final results                                             *
 *                                                                                                                           *
 *                                                                                                                           *
 *                                                                                                                           *
 *                                                       Final Results                                                       *
 *                                                                                                                           *
 *****************************************************************************************************************************
 
::    Total SCF energy                              -1345.1828078226
      One-electron energy                           -1930.6685385399
      Two-electron energy                             540.9476016782
      Nuclear repulsion energy                         44.5381290390
      Kinetic energy (interpolated)                  1399.4295621714
      Virial theorem                                    0.9612365239
      Total spin, S(S+1)                                7.0715587352
      Total spin, S                                     2.2058378989
      Max non-diagonal density matrix element           0.0000057010
      Max non-diagonal Fock matrix element              0.0000009882
 
 
      All orbitals with orbital energies smaller than  E(LUMO)+0.5 are printed
 
++    Molecular orbitals:
      -------------------
 
      Title: UHF orbitals (alpha)

      Molecular orbitals for symmetry species 1: a  
 
          Orbital            1         2         3         4         5         6         7         8         9        10    
          Energy         -264.1535  -32.9545  -28.0339  -28.0339  -28.0122  -21.4152   -4.8824   -3.4530   -3.4530   -3.4007
          Occ. No.          1.0000    1.0000    1.0000    1.0000    1.0000    1.0000    1.0000    1.0000    1.0000    1.0000
 
        1 O1     1s         0.0000   -0.0000   -0.0000   -0.0000   -0.0000    1.0000   -0.0001    0.0000    0.0000   -0.0001
        2 O1     2s         0.0000   -0.0001   -0.0000   -0.0000   -0.0001    0.0000   -0.0006    0.0000    0.0000    0.0013
        3 O1     3s        -0.0000   -0.0001    0.0000    0.0000   -0.0000   -0.0012   -0.0006    0.0000    0.0000    0.0001
        4 O1     2px       -0.0000   -0.0000   -0.0000    0.0000    0.0000   -0.0000   -0.0000    0.0002   -0.0003   -0.0000
        5 O1     3px       -0.0000   -0.0000   -0.0000    0.0001   -0.0000   -0.0000   -0.0000    0.0003   -0.0006   -0.0000
        6 O1     2py        0.0000    0.0000   -0.0000   -0.0000   -0.0000    0.0000    0.0000    0.0003    0.0002    0.0000
        7 O1     3py        0.0000    0.0000   -0.0001   -0.0000    0.0000    0.0000    0.0000    0.0006    0.0003    0.0000
        8 O1     2pz        0.0000   -0.0000   -0.0000   -0.0000   -0.0000    0.0001    0.0003   -0.0000   -0.0000   -0.0009
        9 O1     3pz        0.0000   -0.0000   -0.0000   -0.0000   -0.0000    0.0003    0.0004   -0.0000   -0.0000    0.0001
       10 O1     3d2-       0.0000    0.0000   -0.0000    0.0000   -0.0000    0.0000    0.0000    0.0000   -0.0000   -0.0000
       11 O1     3d1-      -0.0000   -0.0000   -0.0000   -0.0000    0.0000   -0.0000   -0.0000   -0.0002   -0.0001   -0.0000
       12 O1     3d0       -0.0000    0.0000    0.0000    0.0000    0.0000   -0.0015   -0.0000    0.0000    0.0000    0.0001
       13 O1     3d1+       0.0000    0.0000   -0.0000    0.0000   -0.0000    0.0000    0.0000   -0.0001    0.0002    0.0000
       14 O1     3d2+      -0.0000   -0.0000    0.0000    0.0000    0.0000    0.0000   -0.0000   -0.0000   -0.0000    0.0000
       15 FE2    1s         1.0000   -0.0000    0.0000    0.0000   -0.0000    0.0000   -0.0000   -0.0000   -0.0000   -0.0000
       16 FE2    2s         0.0000    1.0000   -0.0000   -0.0000   -0.0009    0.0000   -0.0027   -0.0000   -0.0000   -0.0000
       17 FE2    3s         0.0000    0.0027    0.0000    0.0000    0.0000    0.0001    1.0000   -0.0000   -0.0000   -0.0046
       18 FE2    4s         0.0000   -0.0002   -0.0000   -0.0000    0.0000    0.0003    0.0032   -0.0000   -0.0000    0.0007
       19 FE2    5s         0.0000    0.0002    0.0000    0.0000    0.0000   -0.0001   -0.0012    0.0000    0.0000   -0.0005
       20 FE2    2px        0.0000   -0.0000    0.5221   -0.8529    0.0000    0.0000    0.0000   -0.0013    0.0022   -0.0000
       21 FE2    3px        0.0000   -0.0000    0.0013   -0.0021    0.0000    0.0000    0.0000    0.5190   -0.8547    0.0000
       22 FE2    4px        0.0000    0.0000   -0.0002    0.0003   -0.0000    0.0000    0.0000   -0.0024    0.0040    0.0000
       23 FE2    5px       -0.0000   -0.0000    0.0005   -0.0008    0.0000    0.0000   -0.0000    0.0008   -0.0013   -0.0000
       24 FE2    2py       -0.0000    0.0000    0.8529    0.5221   -0.0000   -0.0000   -0.0000   -0.0022   -0.0013    0.0000
       25 FE2    3py       -0.0000    0.0000    0.0021    0.0013   -0.0000   -0.0000   -0.0000    0.8547    0.5190   -0.0000
       26 FE2    4py       -0.0000   -0.0000   -0.0003   -0.0002    0.0000   -0.0000   -0.0000   -0.0040   -0.0024   -0.0000
       27 FE2    5py        0.0000    0.0000    0.0008    0.0005   -0.0000   -0.0000    0.0000    0.0013    0.0008    0.0000
       28 FE2    2pz        0.0000    0.0009    0.0000    0.0000    1.0000    0.0000   -0.0000   -0.0000   -0.0000   -0.0021
       29 FE2    3pz       -0.0000    0.0000    0.0000    0.0000    0.0021    0.0001    0.0046    0.0000    0.0000    0.9999
       30 FE2    4pz        0.0000    0.0000   -0.0000   -0.0000   -0.0002    0.0003    0.0006   -0.0000   -0.0000   -0.0019
       31 FE2    5pz       -0.0000    0.0001    0.0000    0.0000    0.0007    0.0000    0.0003    0.0000    0.0000   -0.0000
       32 FE2    3d2-       0.0000    0.0000    0.0000   -0.0000    0.0000   -0.0000    0.0000   -0.0000    0.0000   -0.0000
       33 FE2    4d2-      -0.0000   -0.0000   -0.0000    0.0000   -0.0000   -0.0000   -0.0000   -0.0000    0.0000   -0.0000
       34 FE2    3d1-       0.0000    0.0000    0.0001    0.0000    0.0000   -0.0000    0.0000    0.0020    0.0012    0.0000
       35 FE2    4d1-      -0.0000   -0.0000   -0.0000   -0.0000   -0.0000   -0.0000   -0.0000   -0.0008   -0.0005   -0.0000
       36 FE2    3d0       -0.0000   -0.0003    0.0000    0.0000    0.0001    0.0001   -0.0092    0.0000    0.0000    0.0019
       37 FE2    4d0        0.0000    0.0003   -0.0000   -0.0000   -0.0000    0.0002    0.0038   -0.0000   -0.0000    0.0003
       38 FE2    3d1+      -0.0000   -0.0000    0.0000   -0.0001   -0.0000    0.0000   -0.0000    0.0012   -0.0020   -0.0000
       39 FE2    4d1+       0.0000    0.0000   -0.0000    0.0000    0.0000    0.0000    0.0000   -0.0005    0.0008    0.0000
       40 FE2    3d2+      -0.0000   -0.0000   -0.0000   -0.0000    0.0000   -0.0000   -0.0000    0.0000    0.0000    0.0000
       41 FE2    4d2+       0.0000    0.0000    0.0000    0.0000   -0.0000   -0.0000    0.0000    0.0000    0.0000   -0.0000
       42 FE2    4f3-      -0.0000    0.0000    0.0000   -0.0000   -0.0000    0.0000    0.0000    0.0000   -0.0000   -0.0000
       43 FE2    4f2-      -0.0000    0.0000    0.0000   -0.0000    0.0000   -0.0000    0.0000    0.0000   -0.0000    0.0000
       44 FE2    4f1-      -0.0000    0.0000   -0.0002   -0.0001    0.0000   -0.0000    0.0000   -0.0049   -0.0030   -0.0000
       45 FE2    4f0        0.0000   -0.0000   -0.0000   -0.0000   -0.0001    0.0001   -0.0001   -0.0000   -0.0000   -0.0012
       46 FE2    4f1+       0.0000   -0.0000   -0.0001    0.0002   -0.0000    0.0000   -0.0000   -0.0030    0.0049    0.0000
       47 FE2    4f2+      -0.0000    0.0000   -0.0000   -0.0000   -0.0000   -0.0000    0.0000   -0.0000   -0.0000   -0.0000
       48 FE2    4f3+      -0.0000    0.0000   -0.0000   -0.0000   -0.0000    0.0000    0.0000   -0.0000   -0.0000   -0.0000
 
          Orbital           11        12        13        14        15        16        17        18        19        20    
          Energy           -1.9472   -1.3224   -1.3224   -1.1708   -1.1708   -1.1415   -1.1175   -1.1175   -0.5628   -0.4408
          Occ. No.          1.0000    1.0000    1.0000    1.0000    1.0000    1.0000    1.0000    1.0000    0.0000    0.0000
 
        1 O1     1s        -0.0000    0.0000    0.0000    0.0000   -0.0000   -0.0051   -0.0000   -0.0000    0.0077   -0.0108
        2 O1     2s         0.9995    0.0000    0.0000    0.0000   -0.0000   -0.0701   -0.0000   -0.0000    0.1116   -0.1020
        3 O1     3s        -0.0480   -0.0000   -0.0000    0.0000   -0.0000   -0.0139   -0.0000   -0.0000   -0.0006   -0.0144
        4 O1     2px       -0.0000    0.8008   -0.5846   -0.0000    0.0000    0.0000   -0.0312    0.0498   -0.0001   -0.0000
        5 O1     3px        0.0000   -0.0916    0.0669    0.0000   -0.0000   -0.0000   -0.0029    0.0047   -0.0000   -0.0000
        6 O1     2py        0.0000   -0.5846   -0.8008    0.0000    0.0000   -0.0000   -0.0498   -0.0312    0.0002    0.0001
        7 O1     3py       -0.0000    0.0669    0.0916   -0.0000   -0.0000    0.0000   -0.0047   -0.0029    0.0000    0.0000
        8 O1     2pz       -0.0416    0.0002    0.0001    0.0000   -0.0000   -0.0371    0.0000    0.0000    0.8260    0.4831
        9 O1     3pz       -0.0065   -0.0000   -0.0000   -0.0000    0.0000    0.0082   -0.0000   -0.0000    0.1073    0.0838
       10 O1     3d2-      -0.0000   -0.0000    0.0000   -0.0000    0.0000    0.0000    0.0000   -0.0000   -0.0000    0.0000
       11 O1     3d1-      -0.0000    0.0063    0.0086    0.0000    0.0000    0.0000   -0.0001   -0.0001   -0.0000   -0.0000
       12 O1     3d0       -0.0426   -0.0000   -0.0000   -0.0000    0.0000    0.0053    0.0000    0.0000   -0.0172   -0.0013
       13 O1     3d1+       0.0000   -0.0086    0.0063   -0.0000    0.0000   -0.0000   -0.0001    0.0001    0.0000    0.0000
       14 O1     3d2+       0.0000   -0.0000   -0.0000   -0.0000   -0.0000   -0.0000   -0.0000   -0.0000    0.0000   -0.0000
       15 FE2    1s        -0.0001    0.0000    0.0000   -0.0000    0.0000    0.0000    0.0000    0.0000    0.0009    0.0007
       16 FE2    2s        -0.0008    0.0000    0.0000   -0.0000    0.0000    0.0005    0.0000    0.0000    0.0067    0.0049
       17 FE2    3s        -0.0057    0.0000    0.0000   -0.0000    0.0000    0.0102    0.0000    0.0000    0.0380    0.0229
       18 FE2    4s        -0.0056   -0.0000   -0.0000   -0.0000    0.0000    0.0202   -0.0000   -0.0000   -0.3402    0.9766
       19 FE2    5s        -0.0036    0.0000    0.0000    0.0000    0.0000   -0.0018    0.0000    0.0000    0.0757   -0.0919
       20 FE2    2px        0.0000   -0.0001    0.0001   -0.0000    0.0000   -0.0000   -0.0000    0.0000    0.0000    0.0000
       21 FE2    3px        0.0000   -0.0023    0.0017    0.0000   -0.0000   -0.0000   -0.0010    0.0016    0.0000    0.0000
       22 FE2    4px        0.0000    0.0042   -0.0031   -0.0000    0.0000    0.0000    0.0053   -0.0084   -0.0000   -0.0000
       23 FE2    5px        0.0000    0.0001   -0.0001    0.0000   -0.0000    0.0000    0.0009   -0.0014   -0.0000   -0.0000
       24 FE2    2py       -0.0000    0.0001    0.0001    0.0000    0.0000    0.0000   -0.0000   -0.0000   -0.0000   -0.0000
       25 FE2    3py       -0.0000    0.0017    0.0023   -0.0000   -0.0000    0.0000   -0.0016   -0.0010   -0.0000   -0.0000
       26 FE2    4py       -0.0000   -0.0031   -0.0042    0.0000    0.0000   -0.0000    0.0084    0.0053    0.0000    0.0000
       27 FE2    5py       -0.0000   -0.0001   -0.0001   -0.0000   -0.0000   -0.0000    0.0014    0.0009    0.0000    0.0000
       28 FE2    2pz       -0.0002    0.0000    0.0000    0.0000   -0.0000   -0.0000   -0.0000   -0.0000    0.0012    0.0008
       29 FE2    3pz       -0.0094    0.0000    0.0000    0.0000   -0.0000   -0.0012   -0.0000   -0.0000    0.0286    0.0190
       30 FE2    4pz       -0.0045   -0.0000   -0.0000   -0.0000    0.0000    0.0281   -0.0000   -0.0000   -0.1321   -0.0974
       31 FE2    5pz       -0.0024    0.0000    0.0000   -0.0000    0.0000    0.0017    0.0000    0.0000   -0.0061   -0.0038
       32 FE2    3d2-      -0.0000    0.0000   -0.0000    0.8253   -0.5629    0.0000   -0.0000    0.0000   -0.0000    0.0000
       33 FE2    4d2-       0.0000   -0.0000    0.0000   -0.0376    0.0256   -0.0000   -0.0000    0.0000   -0.0000    0.0000
       34 FE2    3d1-      -0.0000   -0.0200   -0.0274   -0.0000   -0.0000   -0.0002    0.8473    0.5312   -0.0000    0.0000
       35 FE2    4d1-      -0.0000   -0.0007   -0.0010    0.0000    0.0000    0.0000   -0.0233   -0.0146    0.0000   -0.0000
       36 FE2    3d0        0.0114   -0.0000   -0.0000   -0.0000    0.0000    0.9989    0.0001    0.0002    0.0935    0.0446
       37 FE2    4d0       -0.0014   -0.0000   -0.0000    0.0000   -0.0000   -0.0278   -0.0000   -0.0000   -0.0150   -0.0223
       38 FE2    3d1+       0.0000    0.0274   -0.0200    0.0000   -0.0000    0.0001    0.5312   -0.8473    0.0000   -0.0000
       39 FE2    4d1+       0.0000    0.0010   -0.0007   -0.0000    0.0000   -0.0000   -0.0146    0.0233   -0.0000    0.0000
       40 FE2    3d2+       0.0000    0.0000    0.0000    0.5629    0.8253   -0.0000    0.0000    0.0000   -0.0000    0.0000
       41 FE2    4d2+      -0.0000   -0.0000   -0.0000   -0.0256   -0.0376    0.0000    0.0000    0.0000    0.0000   -0.0000
       42 FE2    4f3-       0.0000   -0.0000    0.0000   -0.0000   -0.0000   -0.0000   -0.0000    0.0000    0.0000   -0.0000
       43 FE2    4f2-      -0.0000   -0.0000    0.0000    0.0011   -0.0007    0.0000   -0.0000    0.0000    0.0000   -0.0000
       44 FE2    4f1-      -0.0000   -0.0005   -0.0007   -0.0000   -0.0000   -0.0000    0.0015    0.0009    0.0000    0.0000
       45 FE2    4f0        0.0007   -0.0000   -0.0000   -0.0000    0.0000    0.0023    0.0000    0.0000   -0.0029   -0.0015
       46 FE2    4f1+       0.0000    0.0007   -0.0005    0.0000   -0.0000    0.0000    0.0009   -0.0015   -0.0000   -0.0000
       47 FE2    4f2+       0.0000   -0.0000   -0.0000    0.0007    0.0011   -0.0000    0.0000    0.0000    0.0000   -0.0000
       48 FE2    4f3+       0.0000   -0.0000   -0.0000    0.0000   -0.0000   -0.0000    0.0000    0.0000    0.0000   -0.0000
 
          Orbital           21        22        23        24    
          Energy           -0.3162   -0.3162   -0.2651   -0.1830
          Occ. No.          0.0000    0.0000    0.0000    0.0000
 
        1 O1     1s         0.0000    0.0000   -0.0339   -0.0141
        2 O1     2s         0.0000    0.0000   -0.3120   -0.1146
        3 O1     3s         0.0000    0.0000   -0.0225   -0.0303
        4 O1     2px       -0.0362    0.0660   -0.0000    0.0000
        5 O1     3px        0.0226   -0.0413   -0.0000    0.0000
        6 O1     2py       -0.0660   -0.0362    0.0000   -0.0000
        7 O1     3py        0.0413    0.0226    0.0000   -0.0000
        8 O1     2pz       -0.0000   -0.0000    0.3942   -0.1591
        9 O1     3pz       -0.0000   -0.0000    0.1225    0.0087
       10 O1     3d2-       0.0000   -0.0000    0.0000   -0.0000
       11 O1     3d1-      -0.0080   -0.0044    0.0000    0.0000
       12 O1     3d0        0.0000    0.0000    0.0040   -0.0102
       13 O1     3d1+      -0.0044    0.0080   -0.0000   -0.0000
       14 O1     3d2+      -0.0000   -0.0000   -0.0000    0.0000
       15 FE2    1s        -0.0000   -0.0000    0.0008   -0.0000
       16 FE2    2s        -0.0000   -0.0000    0.0056   -0.0004
       17 FE2    3s        -0.0000   -0.0000    0.0292   -0.0004
       18 FE2    4s        -0.0000   -0.0000    0.2052    0.1204
       19 FE2    5s        -0.0000   -0.0000    0.0869    0.9997
       20 FE2    2px        0.0001   -0.0002    0.0000   -0.0000
       21 FE2    3px        0.0016   -0.0029    0.0000   -0.0000
       22 FE2    4px        0.4730   -0.8635   -0.0000   -0.0000
       23 FE2    5px        0.0436   -0.0796   -0.0000   -0.0000
       24 FE2    2py        0.0002    0.0001   -0.0000    0.0000
       25 FE2    3py        0.0029    0.0016   -0.0000    0.0000
       26 FE2    4py        0.8635    0.4730    0.0000    0.0000
       27 FE2    5py        0.0796    0.0436    0.0000    0.0000
       28 FE2    2pz       -0.0000   -0.0000    0.0012   -0.0001
       29 FE2    3pz       -0.0000   -0.0000    0.0243   -0.0009
       30 FE2    4pz       -0.0000   -0.0000    1.0786   -0.0663
       31 FE2    5pz       -0.0000   -0.0000    0.1084   -0.0016
       32 FE2    3d2-       0.0000   -0.0000    0.0000   -0.0000
       33 FE2    4d2-      -0.0000    0.0000   -0.0000   -0.0000
       34 FE2    3d1-      -0.0060   -0.0033    0.0000   -0.0000
       35 FE2    4d1-       0.0105    0.0058   -0.0000   -0.0000
       36 FE2    3d0       -0.0000   -0.0000    0.0335    0.0004
       37 FE2    4d0        0.0000    0.0000   -0.0196    0.0129
       38 FE2    3d1+      -0.0033    0.0060   -0.0000    0.0000
       39 FE2    4d1+       0.0058   -0.0105    0.0000    0.0000
       40 FE2    3d2+      -0.0000   -0.0000    0.0000   -0.0000
       41 FE2    4d2+       0.0000    0.0000    0.0000    0.0000
       42 FE2    4f3-      -0.0000   -0.0000   -0.0000    0.0000
       43 FE2    4f2-      -0.0000    0.0000   -0.0000    0.0000
       44 FE2    4f1-       0.0003    0.0002   -0.0000    0.0000
       45 FE2    4f0        0.0000    0.0000   -0.0023   -0.0001
       46 FE2    4f1+       0.0002   -0.0003    0.0000   -0.0000
       47 FE2    4f2+       0.0000    0.0000   -0.0000    0.0000
       48 FE2    4f3+      -0.0000    0.0000   -0.0000    0.0000
--
 
 
  Input file to MOLDEN was generated!
 
 
++    Static properties:
      ------------------
 
 
      LoProp Charges per center
 

                   O1       FE2   
      Nuclear      8.0000  26.0000
      Electronic  -7.4085 -24.5915
 
      Total        0.5915   1.4085
--
 
 
      All orbitals with orbital energies smaller than  E(LUMO)+0.5 are printed
 
++    Molecular orbitals:
      -------------------
 
      Title: UHF orbitals (beta)

      Molecular orbitals for symmetry species 1: a  
 
          Orbital            1         2         3         4         5         6         7         8         9        10    
          Energy         -264.1511  -32.8429  -27.9154  -27.9153  -27.9153  -21.3792   -4.5703   -3.0849   -3.0460   -3.0460
          Occ. No.          1.0000    1.0000    1.0000    1.0000    1.0000    1.0000    1.0000    1.0000    1.0000    1.0000
 
        1 O1     1s         0.0000   -0.0000    0.0000   -0.0000   -0.0000    1.0000   -0.0001   -0.0001    0.0000    0.0000
        2 O1     2s         0.0000   -0.0001    0.0002   -0.0000   -0.0000   -0.0011   -0.0006    0.0037    0.0000    0.0000
        3 O1     3s         0.0000   -0.0001    0.0002   -0.0000   -0.0000    0.0003   -0.0010   -0.0002    0.0000    0.0000
        4 O1     2px        0.0000   -0.0000   -0.0000    0.0001   -0.0000   -0.0000    0.0000   -0.0000    0.0025   -0.0015
        5 O1     3px        0.0000   -0.0000   -0.0000    0.0001   -0.0000    0.0000    0.0000    0.0000    0.0001   -0.0000
        6 O1     2py       -0.0000    0.0000    0.0000    0.0000    0.0001    0.0000   -0.0000    0.0000   -0.0015   -0.0025
        7 O1     3py       -0.0000    0.0000    0.0000    0.0000    0.0001   -0.0000   -0.0000   -0.0000   -0.0000   -0.0001
        8 O1     2pz        0.0000    0.0001   -0.0000    0.0000    0.0000   -0.0002    0.0009   -0.0023    0.0000    0.0000
        9 O1     3pz       -0.0000    0.0001   -0.0000    0.0000    0.0000   -0.0004    0.0014    0.0011   -0.0000   -0.0000
       10 O1     3d2-       0.0000    0.0000    0.0000    0.0000   -0.0000    0.0000    0.0000    0.0000    0.0000   -0.0000
       11 O1     3d1-       0.0000   -0.0000    0.0000    0.0000    0.0000    0.0000   -0.0000   -0.0000    0.0002    0.0004
       12 O1     3d0       -0.0000   -0.0000   -0.0000   -0.0000   -0.0000    0.0014   -0.0004    0.0002   -0.0000   -0.0000
       13 O1     3d1+      -0.0000    0.0000   -0.0000    0.0000   -0.0000   -0.0000    0.0000    0.0000   -0.0004    0.0002
       14 O1     3d2+      -0.0000   -0.0000   -0.0000   -0.0000   -0.0000   -0.0000   -0.0000   -0.0000    0.0000    0.0000
       15 FE2    1s         1.0000    0.0000   -0.0000    0.0000    0.0000   -0.0000    0.0000    0.0000   -0.0000   -0.0000
       16 FE2    2s        -0.0000    1.0000   -0.0009    0.0000    0.0000   -0.0000    0.0005    0.0000   -0.0000   -0.0000
       17 FE2    3s         0.0000   -0.0004   -0.0001    0.0000    0.0000   -0.0001    1.0002   -0.0022   -0.0000   -0.0000
       18 FE2    4s         0.0000    0.0002   -0.0001    0.0000    0.0000   -0.0005    0.0070    0.0039   -0.0000   -0.0000
       19 FE2    5s         0.0000   -0.0002   -0.0001    0.0000    0.0000    0.0000   -0.0042   -0.0017    0.0000    0.0000
       20 FE2    2px       -0.0000   -0.0000   -0.0008    0.9340   -0.3572   -0.0000   -0.0000    0.0000    0.0019   -0.0012
       21 FE2    3px       -0.0000    0.0000    0.0000   -0.0021    0.0008   -0.0000    0.0000    0.0000    0.8549   -0.5186
       22 FE2    4px       -0.0000   -0.0000   -0.0000    0.0003   -0.0001   -0.0000   -0.0000   -0.0000    0.0036   -0.0022
       23 FE2    5px       -0.0000    0.0000    0.0000   -0.0008    0.0003   -0.0000   -0.0000    0.0000   -0.0060    0.0036
       24 FE2    2py        0.0000    0.0000    0.0030    0.3572    0.9340    0.0000    0.0000   -0.0000   -0.0012   -0.0019
       25 FE2    3py        0.0000   -0.0000   -0.0000   -0.0008   -0.0021    0.0000   -0.0000   -0.0001   -0.5186   -0.8549
       26 FE2    4py        0.0000    0.0000    0.0000    0.0001    0.0003    0.0000    0.0000    0.0000   -0.0022   -0.0036
       27 FE2    5py        0.0000   -0.0000   -0.0000   -0.0003   -0.0008    0.0000    0.0000   -0.0000    0.0036    0.0060
       28 FE2    2pz        0.0000    0.0009    1.0000   -0.0003   -0.0031   -0.0000    0.0001    0.0016   -0.0000   -0.0000
       29 FE2    3pz       -0.0000    0.0000   -0.0016    0.0000    0.0000   -0.0001    0.0023    0.9998   -0.0001   -0.0001
       30 FE2    4pz       -0.0000    0.0001    0.0002   -0.0000   -0.0000   -0.0005    0.0019    0.0081   -0.0000   -0.0000
       31 FE2    5pz       -0.0000    0.0000   -0.0009    0.0000    0.0000   -0.0001   -0.0001   -0.0079    0.0000    0.0000
       32 FE2    3d2-      -0.0000   -0.0000   -0.0000   -0.0000    0.0000    0.0000   -0.0000   -0.0000   -0.0000    0.0000
       33 FE2    4d2-      -0.0000   -0.0000    0.0000   -0.0000    0.0000    0.0000   -0.0000    0.0000   -0.0000    0.0000
       34 FE2    3d1-       0.0000    0.0000    0.0000    0.0000    0.0000    0.0000   -0.0000   -0.0000    0.0005    0.0009
       35 FE2    4d1-      -0.0000   -0.0000   -0.0000   -0.0000   -0.0001    0.0000    0.0000    0.0000   -0.0010   -0.0017
       36 FE2    3d0        0.0000    0.0001    0.0001   -0.0000   -0.0000   -0.0001    0.0016    0.0039    0.0000    0.0000
       37 FE2    4d0       -0.0000    0.0001   -0.0002    0.0000    0.0000   -0.0003    0.0011   -0.0002   -0.0000   -0.0000
       38 FE2    3d1+      -0.0000   -0.0000   -0.0000    0.0000   -0.0000   -0.0000    0.0000    0.0000   -0.0009    0.0005
       39 FE2    4d1+       0.0000    0.0000    0.0000   -0.0001    0.0000   -0.0000   -0.0000   -0.0000    0.0017   -0.0010
       40 FE2    3d2+       0.0000    0.0000    0.0000    0.0000    0.0000    0.0000   -0.0000   -0.0000   -0.0000   -0.0000
       41 FE2    4d2+       0.0000    0.0000    0.0000    0.0000    0.0000    0.0000    0.0000    0.0000   -0.0000   -0.0000
       42 FE2    4f3-       0.0000   -0.0000    0.0000    0.0000   -0.0000    0.0000   -0.0000    0.0000    0.0000    0.0000
       43 FE2    4f2-       0.0000   -0.0000    0.0000   -0.0000    0.0000    0.0000   -0.0000   -0.0000   -0.0000    0.0000
       44 FE2    4f1-       0.0000   -0.0000    0.0000    0.0002    0.0005    0.0000   -0.0000    0.0000   -0.0051   -0.0084
       45 FE2    4f0       -0.0000    0.0000   -0.0008    0.0000    0.0000   -0.0001    0.0005   -0.0154   -0.0000   -0.0000
       46 FE2    4f1+      -0.0000    0.0000   -0.0000    0.0005   -0.0002   -0.0000    0.0000   -0.0000    0.0084   -0.0051
       47 FE2    4f2+       0.0000   -0.0000    0.0000    0.0000    0.0000    0.0000   -0.0000    0.0000   -0.0000   -0.0000
       48 FE2    4f3+       0.0000   -0.0000    0.0000   -0.0000   -0.0000    0.0000   -0.0000    0.0000   -0.0000    0.0000
 
          Orbital           11        12        13        14        15        16        17        18        19        20    
          Energy           -1.8256   -1.3135   -0.8328   -0.8328   -0.5723   -0.5723   -0.4436   -0.2921   -0.2921   -0.2729
          Occ. No.          1.0000    1.0000    1.0000    1.0000    0.0000    0.0000    0.0000    0.0000    0.0000    0.0000
 
        1 O1     1s         0.0014    0.0014    0.0000    0.0000    0.0000    0.0000   -0.0167   -0.0000   -0.0000   -0.0287
        2 O1     2s         0.9989    0.0436    0.0000    0.0000    0.0000    0.0000   -0.1877    0.0000    0.0000   -0.2865
        3 O1     3s        -0.0230   -0.0170    0.0000    0.0000   -0.0000   -0.0000   -0.0209   -0.0000   -0.0000   -0.0264
        4 O1     2px        0.0000   -0.0001    0.3494   -0.2339   -0.5417    0.7032    0.0000   -0.1083    0.1773    0.0000
        5 O1     3px        0.0000    0.0000    0.0328   -0.0219   -0.0748    0.0971    0.0000   -0.0022    0.0035    0.0000
        6 O1     2py       -0.0000    0.0002   -0.2339   -0.3494   -0.7032   -0.5417   -0.0001   -0.1773   -0.1083   -0.0000
        7 O1     3py       -0.0000   -0.0000   -0.0219   -0.0328   -0.0971   -0.0748   -0.0000   -0.0035   -0.0022   -0.0000
        8 O1     2pz       -0.0314    0.9842    0.0000    0.0000    0.0001    0.0002    0.1527    0.0000    0.0000    0.1861
        9 O1     3pz       -0.0182   -0.0926    0.0000    0.0000    0.0000    0.0000   -0.0057    0.0000    0.0000    0.0316
       10 O1     3d2-       0.0000   -0.0000   -0.0000    0.0000   -0.0000    0.0000    0.0000   -0.0000    0.0000    0.0000
       11 O1     3d1-       0.0000   -0.0000    0.0078    0.0117    0.0046    0.0036    0.0000   -0.0085   -0.0052   -0.0000
       12 O1     3d0        0.0533   -0.0084   -0.0000   -0.0000   -0.0000   -0.0000    0.0002   -0.0000   -0.0000   -0.0053
       13 O1     3d1+      -0.0000    0.0000   -0.0117    0.0078    0.0036   -0.0046   -0.0000   -0.0052    0.0085    0.0000
       14 O1     3d2+      -0.0000   -0.0000   -0.0000   -0.0000    0.0000    0.0000    0.0000    0.0000    0.0000    0.0000
       15 FE2    1s        -0.0002    0.0003    0.0000    0.0000    0.0000    0.0000    0.0001    0.0000    0.0000    0.0003
       16 FE2    2s        -0.0015    0.0024    0.0000    0.0000    0.0000    0.0000    0.0007    0.0000    0.0000    0.0022
       17 FE2    3s        -0.0104    0.0162    0.0000    0.0000    0.0000    0.0000   -0.0008    0.0000    0.0000    0.0116
       18 FE2    4s        -0.0047   -0.0238   -0.0001   -0.0001    0.0000    0.0000    1.0302    0.0000    0.0000    0.0391
       19 FE2    5s        -0.0037    0.0081    0.0000    0.0000   -0.0000   -0.0000   -0.0622    0.0000    0.0000    0.0153
       20 FE2    2px       -0.0000    0.0000   -0.0002    0.0001    0.0002   -0.0003   -0.0000   -0.0001    0.0002   -0.0000
       21 FE2    3px        0.0000    0.0000   -0.0041    0.0027    0.0074   -0.0096   -0.0000   -0.0010    0.0017    0.0000
       22 FE2    4px       -0.0000   -0.0000    0.0628   -0.0421   -0.0143    0.0185    0.0000    0.5185   -0.8490   -0.0000
       23 FE2    5px       -0.0000   -0.0000    0.0011   -0.0008   -0.0013    0.0017    0.0000    0.0571   -0.0935   -0.0000
       24 FE2    2py        0.0000   -0.0000    0.0001    0.0002    0.0003    0.0002    0.0000   -0.0002   -0.0001    0.0000
       25 FE2    3py       -0.0000   -0.0000    0.0027    0.0041    0.0096    0.0074    0.0000   -0.0017   -0.0010   -0.0000
       26 FE2    4py        0.0000    0.0000   -0.0421   -0.0628   -0.0185   -0.0143   -0.0000    0.8490    0.5185    0.0000
       27 FE2    5py        0.0000    0.0000   -0.0008   -0.0011   -0.0017   -0.0013   -0.0000    0.0935    0.0571    0.0000
       28 FE2    2pz       -0.0004    0.0007    0.0000    0.0000    0.0000    0.0000    0.0002    0.0000    0.0000    0.0002
       29 FE2    3pz       -0.0169    0.0227    0.0000    0.0000    0.0000    0.0000    0.0023    0.0000    0.0000    0.0047
       30 FE2    4pz       -0.0010   -0.0254   -0.0000   -0.0000   -0.0000   -0.0000    0.0660   -0.0000   -0.0000    1.0555
       31 FE2    5pz       -0.0021    0.0004   -0.0000   -0.0000   -0.0000   -0.0000    0.0074   -0.0000   -0.0000    0.1155
       32 FE2    3d2-       0.0000   -0.0000   -0.0000    0.0000   -0.0000    0.0000   -0.0000   -0.0000    0.0000    0.0000
       33 FE2    4d2-       0.0000   -0.0000   -0.0000    0.0000   -0.0000    0.0000    0.0000   -0.0000    0.0000    0.0000
       34 FE2    3d1-       0.0000   -0.0000   -0.4834   -0.7222    0.3872    0.2983   -0.0001   -0.0369   -0.0225    0.0000
       35 FE2    4d1-       0.0000    0.0000   -0.0509   -0.0760    0.0309    0.0238   -0.0000    0.0021    0.0013    0.0000
       36 FE2    3d0        0.0056   -0.0229   -0.0001   -0.0001    0.0000    0.0001   -0.0195   -0.0000   -0.0000   -0.1517
       37 FE2    4d0        0.0014   -0.0123   -0.0000   -0.0000   -0.0000   -0.0000   -0.0096   -0.0000   -0.0000   -0.0452
       38 FE2    3d1+      -0.0000    0.0000    0.7222   -0.4834    0.2983   -0.3872    0.0000   -0.0225    0.0369   -0.0000
       39 FE2    4d1+      -0.0000   -0.0000    0.0760   -0.0509    0.0238   -0.0309    0.0000    0.0013   -0.0021   -0.0000
       40 FE2    3d2+       0.0000   -0.0000   -0.0000   -0.0000    0.0000    0.0000   -0.0000    0.0000    0.0000   -0.0000
       41 FE2    4d2+      -0.0000    0.0000   -0.0000   -0.0000    0.0000    0.0000   -0.0000    0.0000    0.0000   -0.0000
       42 FE2    4f3-       0.0000   -0.0000   -0.0000    0.0000   -0.0000    0.0000    0.0000    0.0000   -0.0000    0.0000
       43 FE2    4f2-       0.0000   -0.0000   -0.0000    0.0000   -0.0000    0.0000    0.0000    0.0000   -0.0000    0.0000
       44 FE2    4f1-       0.0000    0.0000   -0.0026   -0.0039   -0.0020   -0.0015   -0.0000    0.0009    0.0006    0.0000
       45 FE2    4f0        0.0005   -0.0019   -0.0000   -0.0000   -0.0000   -0.0000   -0.0017   -0.0000   -0.0000   -0.0033
       46 FE2    4f1+      -0.0000   -0.0000    0.0039   -0.0026   -0.0015    0.0020    0.0000    0.0006   -0.0009   -0.0000
       47 FE2    4f2+      -0.0000   -0.0000   -0.0000   -0.0000    0.0000    0.0000    0.0000   -0.0000   -0.0000    0.0000
       48 FE2    4f3+       0.0000   -0.0000   -0.0000   -0.0000    0.0000    0.0000    0.0000   -0.0000   -0.0000    0.0000
 
          Orbital           21        22        23        24    
          Energy           -0.2500   -0.2500   -0.2067   -0.1741
          Occ. No.          0.0000    0.0000    0.0000    0.0000
 
        1 O1     1s         0.0000   -0.0000   -0.0146   -0.0201
        2 O1     2s         0.0000   -0.0000   -0.1595   -0.1645
        3 O1     3s         0.0000   -0.0000    0.0204   -0.0271
        4 O1     2px       -0.0000    0.0000    0.0000   -0.0000
        5 O1     3px        0.0000   -0.0000    0.0000   -0.0000
        6 O1     2py        0.0000    0.0000   -0.0000    0.0000
        7 O1     3py       -0.0000   -0.0000   -0.0000    0.0000
        8 O1     2pz       -0.0000    0.0000    0.1559   -0.0189
        9 O1     3pz        0.0000   -0.0000   -0.0475    0.0862
       10 O1     3d2-       0.0039   -0.0011    0.0000    0.0000
       11 O1     3d1-       0.0000    0.0000    0.0000   -0.0000
       12 O1     3d0       -0.0000    0.0000    0.0162   -0.0141
       13 O1     3d1+      -0.0000    0.0000   -0.0000    0.0000
       14 O1     3d2+       0.0011    0.0039    0.0000   -0.0000
       15 FE2    1s        -0.0000    0.0000   -0.0001    0.0003
       16 FE2    2s        -0.0000    0.0000   -0.0006    0.0027
       17 FE2    3s        -0.0000   -0.0000   -0.0042    0.0160
       18 FE2    4s        -0.0000    0.0000    0.0234    0.1349
       19 FE2    5s         0.0000   -0.0000   -0.1633    0.9800
       20 FE2    2px       -0.0000    0.0000   -0.0000    0.0000
       21 FE2    3px        0.0000   -0.0000   -0.0000    0.0000
       22 FE2    4px        0.0000   -0.0000   -0.0000    0.0000
       23 FE2    5px        0.0000   -0.0000   -0.0000    0.0000
       24 FE2    2py        0.0000    0.0000    0.0000   -0.0000
       25 FE2    3py       -0.0000   -0.0000    0.0000   -0.0000
       26 FE2    4py       -0.0000   -0.0000    0.0000   -0.0000
       27 FE2    5py       -0.0000   -0.0000    0.0000   -0.0000
       28 FE2    2pz       -0.0000   -0.0000   -0.0001    0.0004
       29 FE2    3pz       -0.0000   -0.0000   -0.0040    0.0089
       30 FE2    4pz       -0.0000    0.0000    0.2023    0.0832
       31 FE2    5pz       -0.0000    0.0000    0.0159    0.0157
       32 FE2    3d2-       0.9301   -0.2622    0.0000    0.0000
       33 FE2    4d2-       0.2472   -0.0697    0.0000    0.0000
       34 FE2    3d1-      -0.0000   -0.0000   -0.0002    0.0000
       35 FE2    4d1-      -0.0000   -0.0000   -0.0000   -0.0000
       36 FE2    3d0       -0.0000    0.0000    0.9403    0.1833
       37 FE2    4d0       -0.0000    0.0000    0.2496    0.0520
       38 FE2    3d1+       0.0000   -0.0000    0.0000   -0.0000
       39 FE2    4d1+       0.0000   -0.0000    0.0000    0.0000
       40 FE2    3d2+       0.2622    0.9301   -0.0000   -0.0000
       41 FE2    4d2+       0.0697    0.2472   -0.0000   -0.0000
       42 FE2    4f3-      -0.0000   -0.0000    0.0000   -0.0000
       43 FE2    4f2-       0.0017   -0.0005    0.0000    0.0000
       44 FE2    4f1-      -0.0000   -0.0000   -0.0000   -0.0000
       45 FE2    4f0        0.0000   -0.0000    0.0005    0.0001
       46 FE2    4f1+       0.0000   -0.0000    0.0000    0.0000
       47 FE2    4f2+       0.0005    0.0017   -0.0000   -0.0000
       48 FE2    4f3+       0.0000   -0.0000    0.0000   -0.0000
--
 
 
++    Molecular charges:
      ------------------
 
      Mulliken charges per centre and basis function type
      ---------------------------------------------------
 
                            O1                      FE2   
                     alpha        beta       alpha        beta
      1s           1.0000      1.0000      1.0000      1.0000
      2s           0.9970      0.9977      1.0000      1.0000
      2px          0.9865      0.1979      1.0000      1.0000
      2pz          0.0054      0.9802      1.0000      1.0000
      2py          0.9865      0.1979      1.0000      1.0000
      3s           0.0016      0.0011      1.0001      1.0002
      3px          0.0120      0.0060      0.9999      0.9998
      3pz         -0.0005      0.0072      1.0000      0.9997
      3py          0.0120      0.0060      0.9999      0.9998
      4s           0.0000      0.0000     -0.0008      0.0023
      3d2+        -0.0000      0.0000      0.9979      0.0000
      3d1+         0.0001      0.0009      0.9998      0.7706
      3d0          0.0021      0.0029      0.9958      0.0020
      3d1-         0.0001      0.0009      0.9998      0.7706
      3d2-        -0.0000      0.0000      0.9979      0.0000
      4px          0.0000      0.0000      0.0004      0.0100
      4pz          0.0000      0.0000     -0.0008      0.0043
      4py          0.0000      0.0000      0.0004      0.0100
      5s           0.0000      0.0000     -0.0003      0.0003
      4d2+         0.0000      0.0000      0.0021      0.0000
      4d1+         0.0000      0.0000      0.0011      0.0146
      4d0          0.0000      0.0000      0.0009      0.0019
      4d1-         0.0000      0.0000      0.0011      0.0146
      4d2-         0.0000      0.0000      0.0021      0.0000
      5px          0.0000      0.0000      0.0000      0.0001
      5pz          0.0000      0.0000     -0.0004     -0.0003
      5py          0.0000      0.0000      0.0000      0.0001
      4f3+         0.0000      0.0000      0.0000      0.0000
      4f2+         0.0000      0.0000      0.0000      0.0000
      4f1+         0.0000      0.0000      0.0001      0.0002
      4f0          0.0000      0.0000      0.0000      0.0003
      4f1-         0.0000      0.0000      0.0001      0.0002
      4f2-         0.0000      0.0000      0.0000      0.0000
      4f3-         0.0000      0.0000      0.0000      0.0000
      Total        4.0029      3.3985     13.9971     10.6015
      Total              7.4014                 24.5986
 
      Charge            0.5986                  1.4014
 
      Total electronic charge=   32.000000
 
      Total            charge=    2.000000
--
 
 
  Input file to MOLDEN was generated!
 
 
++    Static properties:
      ------------------
 
 
      LoProp Charges per center
 

                   O1       FE2   
      Nuclear      8.0000  26.0000
      Electronic  -7.4085 -24.5915
 
      Total        0.5915   1.4085
--
 
 
++    Natural Bond Order analysis
      ---------------------------
      Based on LoProp computed density
      -------------------------------------------------------------------------------------
      Atom A       Atom B       Bond Order
        O1           FE2            1.981
      -------------------------------------------------------------------------------------
      NBO located     19.999 core electrons.
      NBO located      1.999 lone pair electrons.
      NBO located      3.963 electrons involved in    1 bonds.
      NBO located      0.992 non-bonded electrons on atom O1        
      NBO located      1.000 non-bonded electrons on atom FE2       
      NBO located      1.000 non-bonded electrons on atom FE2       
      NBO located      1.000 non-bonded electrons on atom FE2       
      The remaining    2.047 electrons are to be considered as diffuse
--
 
 
++    Molecular orbitals:
      -------------------
 
      Title: Natural orbitals

      Molecular orbitals for symmetry species 1: a  
 
          Orbital            1         2         3         4         5         6         7         8         9        10    
          Energy         -264.1523  -32.5349  -21.8057  -27.3443  -27.7904  -27.7902   -5.1310   -3.3964   -3.4307   -3.4309
          Occ. No.          2.0000    2.0000    2.0000    2.0000    2.0000    2.0000    2.0000    1.9998    1.9998    1.9998
 
        1 O1     1s        -0.0002    0.0062    0.9616    0.2683   -0.0001    0.0000   -0.0475   -0.0132   -0.0001    0.0001
        2 O1     2s         0.0000   -0.0003   -0.0278   -0.0072    0.0000   -0.0000   -0.0006   -0.0188   -0.0001    0.0001
        3 O1     3s        -0.0000    0.0000    0.0005    0.0002   -0.0000    0.0000   -0.0009    0.0006    0.0000   -0.0000
        4 O1     2px       -0.0000   -0.0000   -0.0000   -0.0000    0.0001    0.0002    0.0000   -0.0000   -0.0054   -0.0084
        5 O1     3px        0.0000    0.0000    0.0000    0.0000   -0.0000   -0.0000   -0.0000    0.0000    0.0003    0.0004
        6 O1     2py        0.0000    0.0000    0.0000    0.0000    0.0002   -0.0001   -0.0000    0.0001   -0.0084    0.0054
        7 O1     3py       -0.0000    0.0000   -0.0000   -0.0000   -0.0000    0.0000    0.0000   -0.0000    0.0004   -0.0003
        8 O1     2pz       -0.0000    0.0000    0.0011    0.0003   -0.0000    0.0000    0.0003    0.0006    0.0000   -0.0000
        9 O1     3pz       -0.0000   -0.0001    0.0004    0.0000   -0.0000   -0.0000    0.0009    0.0008    0.0000   -0.0000
       10 O1     3d2-      -0.0000   -0.0000    0.0000    0.0000   -0.0000   -0.0000    0.0000    0.0000    0.0000    0.0000
       11 O1     3d1-      -0.0000   -0.0000   -0.0000   -0.0000    0.0000   -0.0000    0.0000    0.0000   -0.0000    0.0000
       12 O1     3d0       -0.0000    0.0000   -0.0002   -0.0000    0.0000    0.0000   -0.0002   -0.0001   -0.0000    0.0000
       13 O1     3d1+       0.0000    0.0000    0.0000    0.0000    0.0000    0.0000   -0.0000   -0.0000   -0.0000   -0.0000
       14 O1     3d2+       0.0000    0.0000   -0.0000   -0.0000    0.0000   -0.0000   -0.0000   -0.0000   -0.0000    0.0000
       15 FE2    1s         1.0000   -0.0000    0.0003   -0.0000   -0.0000    0.0000   -0.0000    0.0000    0.0000   -0.0000
       16 FE2    2s         0.0000    0.9936    0.0018   -0.0091    0.0000   -0.0000    0.1126    0.0040    0.0000   -0.0000
       17 FE2    3s         0.0000   -0.1124    0.0428    0.0269   -0.0000    0.0000    0.9915    0.0446    0.0002   -0.0002
       18 FE2    4s         0.0000   -0.0006    0.0004   -0.0000    0.0000    0.0000    0.0051    0.0026    0.0000   -0.0000
       19 FE2    5s         0.0000    0.0003   -0.0001    0.0000    0.0000   -0.0000   -0.0026   -0.0011   -0.0000    0.0000
       20 FE2    2px       -0.0000    0.0000    0.0000    0.0001    0.5201    0.8497   -0.0000    0.0002    0.0463    0.0727
       21 FE2    3px        0.0000   -0.0000    0.0000   -0.0000   -0.0450   -0.0735   -0.0000    0.0021    0.5353    0.8397
       22 FE2    4px       -0.0000   -0.0000   -0.0000    0.0000    0.0000    0.0001    0.0000   -0.0000   -0.0008   -0.0013
       23 FE2    5px       -0.0000    0.0000   -0.0000    0.0000    0.0001    0.0002    0.0000   -0.0000   -0.0015   -0.0023
       24 FE2    2py        0.0000   -0.0000   -0.0001    0.0006    0.8497   -0.5201    0.0000   -0.0007    0.0726   -0.0463
       25 FE2    3py       -0.0000    0.0000    0.0000   -0.0000   -0.0735    0.0450    0.0000   -0.0076    0.8397   -0.5353
       26 FE2    4py        0.0000    0.0000    0.0000    0.0000    0.0001   -0.0000   -0.0000    0.0000   -0.0013    0.0008
       27 FE2    5py        0.0000   -0.0000   -0.0000    0.0000    0.0002   -0.0001   -0.0000    0.0000   -0.0023    0.0015
       28 FE2    2pz        0.0001    0.0109   -0.2677    0.9602   -0.0005    0.0002   -0.0167    0.0770    0.0004   -0.0005
       29 FE2    3pz       -0.0000    0.0003    0.0313   -0.0719    0.0000   -0.0000   -0.0439    0.9959    0.0053   -0.0059
       30 FE2    4pz        0.0000   -0.0001    0.0002   -0.0002    0.0000   -0.0000    0.0013    0.0032    0.0000   -0.0000
       31 FE2    5pz       -0.0000    0.0000   -0.0001    0.0002   -0.0000    0.0000    0.0003   -0.0039   -0.0000    0.0000
       32 FE2    3d2-      -0.0000    0.0000   -0.0000    0.0000   -0.0000   -0.0000   -0.0000    0.0000    0.0000    0.0000
       33 FE2    4d2-      -0.0000    0.0000   -0.0000   -0.0000    0.0000    0.0000   -0.0000   -0.0000   -0.0000   -0.0000
       34 FE2    3d1-       0.0000    0.0000   -0.0000    0.0000    0.0010   -0.0006   -0.0000    0.0002   -0.0240    0.0153
       35 FE2    4d1-       0.0000   -0.0000    0.0000   -0.0000   -0.0001    0.0000   -0.0000    0.0000   -0.0004    0.0003
       36 FE2    3d0        0.0000   -0.0001   -0.0001   -0.0002    0.0000   -0.0000    0.0014    0.0037    0.0000   -0.0000
       37 FE2    4d0        0.0000   -0.0001    0.0001   -0.0000   -0.0000    0.0000    0.0023    0.0001    0.0000   -0.0000
       38 FE2    3d1+      -0.0000   -0.0000    0.0000   -0.0000    0.0006    0.0010    0.0000   -0.0001   -0.0153   -0.0240
       39 FE2    4d1+      -0.0000    0.0000   -0.0000   -0.0000   -0.0000   -0.0001    0.0000   -0.0000   -0.0003   -0.0004
       40 FE2    3d2+       0.0000   -0.0000    0.0000    0.0000    0.0000   -0.0000   -0.0000    0.0000   -0.0000    0.0000
       41 FE2    4d2+       0.0000   -0.0000    0.0000    0.0000   -0.0000    0.0000    0.0000   -0.0000    0.0000   -0.0000
       42 FE2    4f3-       0.0000    0.0000    0.0000   -0.0000   -0.0000   -0.0000   -0.0000    0.0000    0.0000    0.0000
       43 FE2    4f2-       0.0000    0.0000    0.0000   -0.0000    0.0000    0.0000    0.0000   -0.0000   -0.0000   -0.0000
       44 FE2    4f1-       0.0000    0.0000    0.0000    0.0000    0.0000   -0.0000   -0.0000   -0.0000    0.0017   -0.0011
       45 FE2    4f0        0.0000   -0.0000   -0.0002    0.0002   -0.0000    0.0000    0.0006   -0.0083   -0.0000    0.0000
       46 FE2    4f1+      -0.0000   -0.0000   -0.0000    0.0000    0.0000    0.0000    0.0000    0.0000    0.0011    0.0017
       47 FE2    4f2+      -0.0000   -0.0000   -0.0000    0.0000   -0.0000    0.0000   -0.0000   -0.0000    0.0000   -0.0000
       48 FE2    4f3+       0.0000    0.0000    0.0000   -0.0000    0.0000   -0.0000   -0.0000    0.0000   -0.0000    0.0000
 
          Orbital           11        12        13        14        15        16        17        18        19        20    
          Energy           -1.8940   -0.9918   -0.9918   -0.8245   -0.9047   -0.9047   -0.6685   -0.6685   -0.7181    0.0989
          Occ. No.          1.9949    1.9814    1.9814    1.1165    1.0000    1.0000    1.0000    1.0000    0.8835    0.0186
 
        1 O1     1s         0.0287    0.0000   -0.0000   -0.0044   -0.0000    0.0000    0.0000   -0.0000    0.0029   -0.0000
        2 O1     2s         0.9996   -0.0001    0.0001   -0.0827   -0.0000    0.0000    0.0000    0.0000    0.0148   -0.0001
        3 O1     3s        -0.0355    0.0000   -0.0000    0.0023    0.0000   -0.0000    0.0000   -0.0000    0.0233    0.0000
        4 O1     2px        0.0000    0.3687    0.2203    0.0000   -0.7209   -0.5271   -0.0000    0.0000    0.0000   -0.0381
        5 O1     3px       -0.0000   -0.0090   -0.0054   -0.0000    0.0777    0.0568    0.0000   -0.0000   -0.0000    0.2651
        6 O1     2py       -0.0001   -0.2203    0.3687   -0.0002    0.5271   -0.7209    0.0000    0.0000   -0.0001   -0.0637
        7 O1     3py        0.0000    0.0054   -0.0090    0.0000   -0.0568    0.0777   -0.0000   -0.0000    0.0000    0.4437
        8 O1     2pz       -0.0407    0.0001   -0.0001   -0.6832   -0.0002    0.0001   -0.0000    0.0000   -0.7122    0.0001
        9 O1     3pz       -0.0119    0.0000   -0.0000    0.0676    0.0000   -0.0000   -0.0000    0.0000    0.0636   -0.0001
       10 O1     3d2-       0.0000   -0.0000   -0.0000    0.0000    0.0000    0.0000   -0.0000    0.0000   -0.0000   -0.0000
       11 O1     3d1-       0.0000    0.0050   -0.0084    0.0000   -0.0054    0.0074    0.0000    0.0000   -0.0000   -0.0388
       12 O1     3d0        0.0054   -0.0000    0.0000    0.0090    0.0000   -0.0000    0.0000   -0.0000    0.0020    0.0000
       13 O1     3d1+      -0.0000   -0.0084   -0.0050   -0.0000    0.0074    0.0054    0.0000    0.0000    0.0000   -0.0232
       14 O1     3d2+      -0.0000   -0.0000    0.0000   -0.0000    0.0000   -0.0000   -0.0000   -0.0000    0.0000    0.0000
       15 FE2    1s        -0.0002    0.0000   -0.0000   -0.0002   -0.0000    0.0000   -0.0000    0.0000   -0.0003   -0.0000
       16 FE2    2s        -0.0009   -0.0000    0.0000   -0.0015   -0.0000    0.0000   -0.0000    0.0000   -0.0019   -0.0000
       17 FE2    3s        -0.0064   -0.0000    0.0000   -0.0114   -0.0000    0.0000    0.0000   -0.0000   -0.0119   -0.0000
       18 FE2    4s        -0.0050   -0.0000    0.0000    0.0294    0.0000   -0.0000    0.0000   -0.0000    0.0028    0.0005
       19 FE2    5s        -0.0037    0.0000   -0.0000   -0.0066   -0.0000    0.0000   -0.0000    0.0000   -0.0048   -0.0002
       20 FE2    2px        0.0000    0.0012    0.0007   -0.0000    0.0001    0.0001   -0.0000    0.0000   -0.0000   -0.0003
       21 FE2    3px        0.0000    0.0241    0.0144   -0.0000    0.0049    0.0036    0.0000   -0.0000   -0.0000   -0.0073
       22 FE2    4px        0.0000    0.0374    0.0224    0.0000    0.0003    0.0002   -0.0000    0.0000   -0.0000    0.1719
       23 FE2    5px        0.0000    0.0012    0.0007    0.0000    0.0006    0.0004    0.0000   -0.0000   -0.0000   -0.0011
       24 FE2    2py       -0.0000   -0.0007    0.0012    0.0000   -0.0001    0.0001    0.0000    0.0000    0.0000   -0.0005
       25 FE2    3py       -0.0000   -0.0144    0.0241    0.0000   -0.0036    0.0049   -0.0000   -0.0000    0.0000   -0.0122
       26 FE2    4py       -0.0000   -0.0224    0.0374   -0.0000   -0.0002    0.0003    0.0000    0.0000    0.0000    0.2877
       27 FE2    5py       -0.0000   -0.0007    0.0012   -0.0000   -0.0004    0.0006   -0.0000   -0.0000    0.0000   -0.0018
       28 FE2    2pz        0.0006   -0.0000    0.0000   -0.0005   -0.0000    0.0000    0.0000   -0.0000   -0.0005   -0.0000
       29 FE2    3pz        0.0083   -0.0000    0.0000   -0.0153   -0.0000    0.0000    0.0000   -0.0000   -0.0125   -0.0000
       30 FE2    4pz       -0.0025   -0.0000    0.0000    0.0358    0.0000   -0.0000   -0.0000    0.0000   -0.0021    0.0002
       31 FE2    5pz       -0.0024   -0.0000    0.0000    0.0009   -0.0000    0.0000   -0.0000    0.0000   -0.0016    0.0000
       32 FE2    3d2-      -0.0000   -0.0000   -0.0000    0.0000   -0.0000   -0.0000    0.8253   -0.5629   -0.0000    0.0000
       33 FE2    4d2-       0.0000   -0.0000   -0.0000    0.0000    0.0000    0.0000   -0.0376    0.0256   -0.0000   -0.0000
       34 FE2    3d1-      -0.0001   -0.4526    0.7574   -0.0001   -0.2719    0.3718   -0.0000   -0.0000    0.0001   -0.0860
       35 FE2    4d1-      -0.0000   -0.0175    0.0293    0.0000    0.0086   -0.0118    0.0000    0.0000   -0.0000    0.5107
       36 FE2    3d0        0.0094   -0.0001    0.0001    0.6838   -0.0000    0.0000   -0.0000    0.0000   -0.7343   -0.0000
       37 FE2    4d0        0.0000   -0.0000    0.0000   -0.0104    0.0000   -0.0000    0.0000   -0.0000    0.0302    0.0001
       38 FE2    3d1+       0.0000    0.7574    0.4526    0.0000    0.3718    0.2719    0.0000   -0.0000   -0.0000   -0.0514
       39 FE2    4d1+       0.0000    0.0293    0.0175   -0.0000   -0.0118   -0.0086   -0.0000    0.0000    0.0000    0.3052
       40 FE2    3d2+      -0.0000   -0.0000    0.0000   -0.0000   -0.0000    0.0000    0.5629    0.8253    0.0000   -0.0000
       41 FE2    4d2+      -0.0000   -0.0000    0.0000   -0.0000    0.0000   -0.0000   -0.0256   -0.0376    0.0000    0.0000
       42 FE2    4f3-       0.0000    0.0000    0.0000    0.0000    0.0000   -0.0000   -0.0000   -0.0000    0.0000   -0.0000
       43 FE2    4f2-       0.0000   -0.0000   -0.0000    0.0000   -0.0000   -0.0000    0.0011   -0.0007    0.0000    0.0000
       44 FE2    4f1-      -0.0000   -0.0017    0.0029   -0.0000   -0.0001    0.0001   -0.0000   -0.0000    0.0000    0.0145
       45 FE2    4f0        0.0004   -0.0000    0.0000    0.0028    0.0000   -0.0000   -0.0000    0.0000   -0.0004   -0.0000
       46 FE2    4f1+       0.0000    0.0029    0.0017    0.0000    0.0001    0.0001    0.0000   -0.0000   -0.0000    0.0087
       47 FE2    4f2+      -0.0000   -0.0000    0.0000   -0.0000   -0.0000    0.0000    0.0007    0.0011   -0.0000   -0.0000
       48 FE2    4f3+       0.0000    0.0000   -0.0000    0.0000   -0.0000   -0.0000    0.0000   -0.0000    0.0000    0.0000
 
          Orbital           21        22        23        24        25        26        27        28        29        30    
          Energy            0.0989    1.3640    2.6601    2.6601    2.2784    0.1063    2.1621    2.1621    1.7561    1.5282
          Occ. No.          0.0186    0.0051    0.0002    0.0002    0.0002    0.0000    0.0000    0.0000    0.0000    0.0000
 
        1 O1     1s         0.0000   -0.0014    0.0000   -0.0000    0.0034    0.0053    0.0000   -0.0000   -0.0450    0.0585
        2 O1     2s         0.0001   -0.0090    0.0004   -0.0003    0.0554    0.0092    0.0000   -0.0000   -0.4113    0.5885
        3 O1     3s        -0.0000    0.2497    0.0003   -0.0002    0.0384   -0.0450    0.0000   -0.0000   -0.4349    0.8945
        4 O1     2px       -0.0637   -0.0000   -0.0317   -0.0259    0.0001    0.0000   -0.0463   -0.0791    0.0000    0.0000
        5 O1     3px        0.4436    0.0000   -0.1348   -0.1101    0.0003    0.0001   -0.1184   -0.2020    0.0000    0.0000
        6 O1     2py        0.0381    0.0000    0.0259   -0.0317   -0.0003   -0.0000   -0.0791    0.0463   -0.0000   -0.0001
        7 O1     3py       -0.2651   -0.0001    0.1101   -0.1348   -0.0012   -0.0005   -0.2020    0.1184   -0.0002   -0.0001
        8 O1     2pz       -0.0001    0.0198   -0.0006    0.0004   -0.0909    0.1235    0.0000   -0.0000    0.1735   -0.4102
        9 O1     3pz        0.0001   -0.1085   -0.0004    0.0003   -0.0532    0.1946    0.0000   -0.0000    0.0915   -0.3976
       10 O1     3d2-      -0.0000    0.0000   -0.0000   -0.0000    0.0000    0.0000   -0.0000   -0.0000    0.0000   -0.0000
       11 O1     3d1-       0.0232    0.0004   -0.0026    0.0032    0.0001    0.0000   -0.0087    0.0051   -0.0000    0.0000
       12 O1     3d0       -0.0000    0.9520    0.0007   -0.0005    0.1103   -0.0953    0.0000   -0.0000   -0.0606    0.2006
       13 O1     3d1+      -0.0388   -0.0001    0.0032    0.0026   -0.0000   -0.0000   -0.0051   -0.0087    0.0000   -0.0000
       14 O1     3d2+      -0.0000   -0.0000   -0.0000    0.0000   -0.0000   -0.0000    0.0000   -0.0000   -0.0000    0.0000
       15 FE2    1s         0.0000   -0.0010   -0.0000    0.0000   -0.0003    0.0009    0.0000   -0.0000    0.0009   -0.0026
       16 FE2    2s         0.0000   -0.0072   -0.0000    0.0000   -0.0025    0.0064    0.0000   -0.0000    0.0063   -0.0188
       17 FE2    3s         0.0000   -0.0415   -0.0001    0.0001   -0.0123    0.0284    0.0000   -0.0000    0.0343   -0.0984
       18 FE2    4s        -0.0005    0.0108   -0.0010    0.0007   -0.1751    0.7022   -0.0000    0.0000    0.3976   -0.7187
       19 FE2    5s         0.0002   -0.0023    0.0004   -0.0003    0.0709   -0.5953   -0.0000    0.0000    0.0349   -0.0159
       20 FE2    2px       -0.0005   -0.0000    0.0000    0.0000   -0.0000   -0.0000    0.0001    0.0002   -0.0000   -0.0000
       21 FE2    3px       -0.0122   -0.0000    0.0016    0.0013   -0.0000   -0.0000    0.0040    0.0069   -0.0000   -0.0000
       22 FE2    4px        0.2877    0.0000    0.2785    0.2275   -0.0008    0.0000    0.0196    0.0335   -0.0000   -0.0000
       23 FE2    5px       -0.0018   -0.0000   -0.3478   -0.2842    0.0009    0.0000    0.4497    0.7675   -0.0000   -0.0000
       24 FE2    2py        0.0003    0.0000   -0.0000    0.0000    0.0000    0.0000    0.0002   -0.0001    0.0000    0.0000
       25 FE2    3py        0.0073    0.0000   -0.0013    0.0016    0.0000    0.0000    0.0069   -0.0040    0.0000    0.0000
       26 FE2    4py       -0.1719   -0.0001   -0.2275    0.2785    0.0028   -0.0001    0.0335   -0.0196    0.0000    0.0002
       27 FE2    5py        0.0011    0.0000    0.2841   -0.3478   -0.0034   -0.0001    0.7675   -0.4497    0.0001    0.0001
       28 FE2    2pz        0.0000   -0.0016   -0.0000    0.0000   -0.0001    0.0011    0.0000   -0.0000    0.0013   -0.0039
       29 FE2    3pz        0.0000   -0.0392   -0.0000    0.0000   -0.0010    0.0208    0.0000   -0.0000    0.0316   -0.0817
       30 FE2    4pz       -0.0002    0.0382   -0.0034    0.0024   -0.5196    0.1252    0.0001   -0.0001    0.4821   -0.9351
       31 FE2    5pz       -0.0000    0.0006    0.0028   -0.0020    0.4193   -0.0094   -0.0001    0.0001    0.9604    0.0621
       32 FE2    3d2-       0.0000   -0.0000    0.0000    0.0000   -0.0000    0.0000   -0.0000   -0.0000   -0.0000    0.0000
       33 FE2    4d2-      -0.0000    0.0000    0.0000    0.0000   -0.0000    0.0000    0.0000    0.0000   -0.0000    0.0000
       34 FE2    3d1-       0.0514    0.0000   -0.0044    0.0053    0.0000    0.0000    0.0162   -0.0095    0.0000    0.0000
       35 FE2    4d1-      -0.3052   -0.0001    0.0279   -0.0341   -0.0002   -0.0001    0.0912   -0.0535   -0.0001    0.0003
       36 FE2    3d0        0.0000   -0.0698   -0.0000    0.0000   -0.0067   -0.0030   -0.0000    0.0000    0.0651   -0.1461
       37 FE2    4d0       -0.0001    0.0284    0.0002   -0.0001    0.0352   -0.4683   -0.0000    0.0000    0.2666   -0.8654
       38 FE2    3d1+      -0.0860   -0.0000    0.0053    0.0044   -0.0000   -0.0000    0.0095    0.0162   -0.0000   -0.0000
       39 FE2    4d1+       0.5107    0.0000   -0.0341   -0.0279    0.0001    0.0000    0.0535    0.0912    0.0000   -0.0001
       40 FE2    3d2+       0.0000    0.0000    0.0000   -0.0000   -0.0000   -0.0000    0.0000   -0.0000    0.0000   -0.0000
       41 FE2    4d2+      -0.0000   -0.0000    0.0000   -0.0000   -0.0000   -0.0000   -0.0000    0.0000    0.0000   -0.0000
       42 FE2    4f3-      -0.0000    0.0000   -0.0000   -0.0000   -0.0000   -0.0000   -0.0000   -0.0000    0.0000    0.0000
       43 FE2    4f2-       0.0000    0.0000   -0.0001   -0.0000    0.0000    0.0000   -0.0000   -0.0000   -0.0000   -0.0000
       44 FE2    4f1-      -0.0087   -0.0000   -0.5123    0.6270    0.0060    0.0001    0.4252   -0.2491    0.0002    0.0001
       45 FE2    4f0        0.0000   -0.0047    0.0046   -0.0033    0.7462    0.2360    0.0001   -0.0001   -0.2937   -0.4251
       46 FE2    4f1+       0.0145    0.0000    0.6270    0.5124   -0.0017   -0.0000    0.2491    0.4252   -0.0001   -0.0000
       47 FE2    4f2+       0.0000   -0.0000   -0.0000    0.0001   -0.0000   -0.0000    0.0000   -0.0000    0.0000    0.0000
       48 FE2    4f3+      -0.0000    0.0000   -0.0000    0.0000   -0.0000   -0.0000    0.0000   -0.0000    0.0000    0.0000
 
          Orbital           31        32        33        34        35        36        37        38        39        40    
          Energy            0.2684   -0.1969    0.1736    0.1755    0.3850    0.4356    0.5511    0.5529    0.5174    0.5187
          Occ. No.          0.0000    0.0000    0.0000    0.0000    0.0000    0.0000    0.0000    0.0000    0.0000    0.0000
 
        1 O1     1s         0.0143   -0.0050    0.0000    0.0000    0.0202    0.0093   -0.0000   -0.0000    0.0000   -0.0000
        2 O1     2s         0.1381   -0.0347    0.0000    0.0001    0.2055    0.0589   -0.0000   -0.0001    0.0000   -0.0000
        3 O1     3s         0.1843    0.1902    0.0001    0.0002    0.5109   -0.7583    0.0001    0.0000    0.0000    0.0000
        4 O1     2px       -0.0001   -0.0000    0.0278   -0.0554    0.0001    0.0001    0.1975    0.0601    0.0016    0.0000
        5 O1     3px       -0.0002    0.0001    0.1091   -0.2193    0.0004    0.0003    0.8656    0.2634    0.0064    0.0015
        6 O1     2py        0.0002    0.0000    0.0496    0.0297    0.0000    0.0000   -0.0593    0.1989    0.0013    0.0009
        7 O1     3py        0.0007   -0.0001    0.1941    0.1175   -0.0001    0.0001   -0.2602    0.8714    0.0051    0.0037
        8 O1     2pz        0.0006   -0.0508    0.0000   -0.0001   -0.2092   -0.1441    0.0001    0.0000   -0.0000   -0.0000
        9 O1     3pz       -0.0325   -0.2537   -0.0000   -0.0004   -1.1326   -0.4280    0.0004    0.0003   -0.0000   -0.0000
       10 O1     3d2-      -0.0000   -0.0000    0.0001   -0.0000   -0.0000   -0.0000   -0.0003    0.0039    0.0231    0.0457
       11 O1     3d1-      -0.0001   -0.0001   -0.0152   -0.0076    0.0002    0.0004   -0.0213    0.0731   -0.0138   -0.0027
       12 O1     3d0       -0.0318   -0.0611   -0.0000   -0.0000   -0.1079    0.2651   -0.0000   -0.0001    0.0000    0.0000
       13 O1     3d1+       0.0000    0.0000   -0.0082    0.0131   -0.0000   -0.0000    0.0722    0.0229   -0.0167    0.0293
       14 O1     3d2+       0.0000    0.0000    0.0000    0.0000    0.0000    0.0000    0.0002   -0.0025    0.0070   -0.0464
       15 FE2    1s        -0.0003   -0.0011   -0.0000   -0.0000   -0.0047   -0.0012    0.0000    0.0000   -0.0000   -0.0000
       16 FE2    2s        -0.0020   -0.0079   -0.0000   -0.0000   -0.0339   -0.0084    0.0000    0.0000   -0.0000   -0.0000
       17 FE2    3s        -0.0132   -0.0411   -0.0000   -0.0001   -0.1685   -0.0371    0.0000    0.0000   -0.0000   -0.0000
       18 FE2    4s        -0.0787    0.5721   -0.0002   -0.0003   -0.6371   -0.0356    0.0001    0.0002   -0.0000    0.0000
       19 FE2    5s        -0.6646    0.5085   -0.0003   -0.0002   -0.0804    0.1363   -0.0003    0.0004    0.0000    0.0000
       20 FE2    2px        0.0000   -0.0000   -0.0002    0.0003   -0.0000   -0.0000   -0.0012   -0.0004   -0.0000    0.0000
       21 FE2    3px        0.0000   -0.0000   -0.0039    0.0076   -0.0000   -0.0000   -0.0237   -0.0072   -0.0003    0.0002
       22 FE2    4px       -0.0000   -0.0000   -0.4289    0.7830   -0.0003   -0.0001   -0.2712   -0.0908   -0.0034    0.0019
       23 FE2    5px       -0.0000   -0.0000   -0.1022    0.1856   -0.0001   -0.0000   -0.0254   -0.0098   -0.0008    0.0010
       24 FE2    2py       -0.0000    0.0000   -0.0003   -0.0002    0.0000   -0.0000    0.0004   -0.0012   -0.0000   -0.0000
       25 FE2    3py       -0.0000    0.0000   -0.0069   -0.0041    0.0000   -0.0000    0.0071   -0.0239   -0.0002   -0.0001
       26 FE2    4py        0.0001   -0.0002   -0.7748   -0.4315    0.0001   -0.0000    0.0778   -0.2935   -0.0029   -0.0015
       27 FE2    5py        0.0001   -0.0000   -0.1848   -0.1025    0.0000    0.0000    0.0067   -0.0306   -0.0007   -0.0002
       28 FE2    2pz       -0.0005   -0.0013   -0.0000   -0.0000   -0.0053   -0.0010    0.0000    0.0000   -0.0000   -0.0000
       29 FE2    3pz       -0.0111   -0.0255   -0.0000   -0.0000   -0.1028   -0.0145    0.0000    0.0000   -0.0000   -0.0000
       30 FE2    4pz       -0.5476   -0.4688   -0.0001   -0.0002   -0.2058   -0.2450   -0.0002    0.0005    0.0000   -0.0000
[...]
      Spin density orbitals for root   1 are written to the SPDORB.1 file
 
--- Stop Module: rasscf at Tue Dec 24 03:53:55 2024 /rc=_RC_ALL_IS_WELL_ ---
*** files: 2.47.LprOrb 2.47.rasscf.molden 2.47.rasscf.molden.1 2.47.LoProp.molden 2.47.RasOrb 2.47.RasOrb.1 2.47.rasscf.h5 2.47.SpdOrb.1 xmldump
    saved to directory /home/grierjones/DDCASPT2/iron_oxo_DDCASPT2/cluster/2.47
--- Module rasscf spent 1 minute 35 seconds ---

>>> COPY /tmp/2.47/2.47.rasscf.h5 /home/grierjones/DDCASPT2/iron_oxo_DDCASPT2/cluster/2.47/

>>> COPY /tmp/2.47/GMJ_Fock_MO.csv /home/grierjones/DDCASPT2/iron_oxo_DDCASPT2/cluster/2.47/2.47.GMJ_Fock_MO.csv

>>> COPY /tmp/2.47/GMJ_PT2_Fock_MO.csv /home/grierjones/DDCASPT2/iron_oxo_DDCASPT2/cluster/2.47/2.47.GMJ_PT2_Fock_MO.csv

*** symbolic link created: INPORB -> 2.47.RasOrb
--- Start Module: motra at Tue Dec 24 03:53:55 2024 ---
 
()()()()()()()()()()()()()()()()()()()()()()()()()()()()()()()()()()()()()()()()()()()()()()()()()()

                                               &MOTRA

                                   only a single process is used
                       available to each process: 2.0 GB of memory, 1 thread?
()()()()()()()()()()()()()()()()()()()()()()()()()()()()()()()()()()()()()()()()()()()()()()()()()()
 
 
      *** WARNING: Default frozen orbitals is overwritten by user input.
      *** Default values:   7
 
      Header of the integral files:
      
       Integrals generated by seward 4.2.0  , Tue Dec 24 03:52:19 2024
 
 
      Header of MO coefficients source file:
      * RASSCF average (pseudo-natural) orbitals                                      
 
 
      Cartesian coordinates in Angstrom:
      -----------------------------------------------------
      No.  Label        X            Y            Z        
      -----------------------------------------------------
       1   O1         0.00000000   0.00000000   2.03567000
       2   FE2        0.00000000   0.00000000  -0.43567000
      -----------------------------------------------------
      Nuclear repulsion energy =   44.53812904
 
      Orbital specifications:
      -----------------------
 
      Symmetry species:              1
      Number of basis functions:    48
      Frozen orbitals:               0
      Deleted orbitals:              0
      Number of orbitals used:      48

       SYMMETRY  BASIS FUNCTIONS       ORBITALS      INTEGRALS   CPU(SEC)  I/O(SEC)
 
        1 1 1 1   48  48  48  48    48  48  48  48      692076       0.00      0.00

       TOTAL CPU TIME(SEC)    0.28TOTAL I/O TIME(SEC)    0.86
 
--- Stop Module: motra at Tue Dec 24 03:53:56 2024 /rc=_RC_ALL_IS_WELL_ ---
*** files: xmldump
    saved to directory /home/grierjones/DDCASPT2/iron_oxo_DDCASPT2/cluster/2.47

>>> COPY /tmp/2.47/GMJ_one_int_indx.csv /home/grierjones/DDCASPT2/iron_oxo_DDCASPT2/cluster/2.47/2.47.GMJ_one_int_indx.csv

>>> COPY /tmp/2.47/GMJ_one_int.csv /home/grierjones/DDCASPT2/iron_oxo_DDCASPT2/cluster/2.47/2.47.GMJ_one_int.csv

>>> COPY /tmp/2.47/GMJ_two_int_indx.csv /home/grierjones/DDCASPT2/iron_oxo_DDCASPT2/cluster/2.47/2.47.GMJ_two_int_indx.csv

>>> COPY /tmp/2.47/GMJ_two_int.csv /home/grierjones/DDCASPT2/iron_oxo_DDCASPT2/cluster/2.47/2.47.GMJ_two_int.csv

*** symbolic link created: INPORB -> 2.47.RasOrb
--- Start Module: caspt2 at Tue Dec 24 03:53:56 2024 ---
 
()()()()()()()()()()()()()()()()()()()()()()()()()()()()()()()()()()()()()()()()()()()()()()()()()()

                                              &CASPT2

                                   only a single process is used
                       available to each process: 2.0 GB of memory, 1 thread?
()()()()()()()()()()()()()()()()()()()()()()()()()()()()()()()()()()()()()()()()()()()()()()()()()()
 
 Cholesky algorithm in CASPT2 =    1
 
 ###############################################################################
 ###############################################################################
 ###                                                                         ###
 ###                                                                         ###
 ###    User changed nr of frozen orbitals.                                  ###
 ###                                                                         ###
 ###                                                                         ###
 ###############################################################################
 ###############################################################################
 
++    Wave function specifications:
      -----------------------------
 
      Number of closed shell electrons          22
      Number of electrons in active shells      10
      Max number of holes in RAS1 space          0
      Max number of electrons in RAS3 space      0
      Number of inactive orbitals               11
      Number of active orbitals                 14
      Number of secondary orbitals              23
      Spin quantum number                      2.0
      State symmetry                             1
      Number of CSFs                        975975
      Number of root(s) available                1
      Root passed to geometry opt.               1
      A file JOBMIX will be created.
      This is a CASSCF or RASSCF reference function
--
 
++    Orbital specifications:
      -----------------------
 
      Symmetry species                           1
                                                 a
      Frozen orbitals                            0
      Inactive orbitals                         11
      Active orbitals                           14
      Secondary orbitals                        23
      Deleted orbitals                           0
      Number of basis functions                 48
--
 
      Type of Fock operator: STANDARD
      Type of 0-order Hamiltonian: STANDARD WITH DEFAULT IPEA
        "IP-EA" denominator shift =      0.25
      The input orbitals and the CI vector will be transformed.
 
--------------------------------------------------------------------------------
 Estimated memory requirements:
  POLY3 :                227658189
  RHS:                     4146972
  SIGMA :                   646704
  PRPCTL:                        0
 Available workspace:    229020647
 
++ CASPT2 computation for group   1
 
********************************************************************************
 Multi-State initialization phase begins for group   1
--------------------------------------------------------------------------------
********************************************************************************
 Compute H0 matrices for state    1
--------------------------------------------------------------------------------
--------------------------------------------------------------------------------
 H0 matrices have been computed.
 
********************************************************************************
  CASPT2 EQUATION SOLUTION
--------------------------------------------------------------------------------
 
  Total nr of CASPT2 parameters:
   Before reduction:      408969
   After  reduction:      408969
 
 The contributions to the second order correlation energy in atomic units.
-----------------------------------------------------------------------------------------------------------------------------
  IT.      VJTU        VJTI        ATVX        AIVX        VJAI        BVAT        BJAT        BJAI        TOTAL       RNORM  
-----------------------------------------------------------------------------------------------------------------------------
   1    -0.003925   -0.029868   -0.015543   -0.179259   -0.017947   -0.077423   -0.018523   -0.043854   -0.386341    0.014584
   2    -0.003957   -0.029901   -0.015877   -0.179678   -0.017998   -0.077610   -0.018694   -0.043930   -0.387645    0.003369
   3    -0.003958   -0.029907   -0.015946   -0.179773   -0.017998   -0.077609   -0.018709   -0.043936   -0.387835    0.000835
   4    -0.003956   -0.029906   -0.015944   -0.179752   -0.017995   -0.077594   -0.018701   -0.043932   -0.387780    0.000217
   5    -0.003956   -0.029906   -0.015942   -0.179746   -0.017995   -0.077593   -0.018700   -0.043931   -0.387769    0.000051
   6    -0.003956   -0.029906   -0.015942   -0.179748   -0.017995   -0.077594   -0.018700   -0.043931   -0.387772    0.000012
   7    -0.003956   -0.029906   -0.015942   -0.179748   -0.017995   -0.077594   -0.018700   -0.043931   -0.387773    0.000003
-------------------------------------------------------------------------------------------------------------------
 
  FINAL CASPT2 RESULT:
 
  Correlation energy /Case, /Symm, and sums:
 VJTU     -0.00395631 -0.00395631
 VJTIP    -0.01032304 -0.01032304
 VJTIM    -0.01958265 -0.01958265
 ATVX     -0.01594178 -0.01594178
 AIVX     -0.17974830 -0.17974830
 VJAIP    -0.01427932 -0.01427932
 VJAIM    -0.00371534 -0.00371534
 BVATP    -0.02177461 -0.02177461
 BVATM    -0.05581967 -0.05581967
 BJATP    -0.01145638 -0.01145638
 BJATM    -0.00724383 -0.00724383
 BJAIP    -0.02965225 -0.02965225
 BJAIM    -0.01427913 -0.01427913
 Summed:  -0.38777261 -0.38777261
 
      Reference energy:       -1345.4921041912
      E2 (Non-variational):      -0.3877726111
      E2 (Variational):          -0.3877725961
      Total energy:           -1345.8798767873
      Residual norm:              0.0000006862
      Reference weight:           0.93781
 
      Contributions to the CASPT2 correlation energy
      Active & Virtual Only:         -0.0935360611
      One Inactive Excited:          -0.2024048229
      Two Inactive Excited:          -0.0918317272
 
 
++ Denominators, etc.
----------------------------------------------------------------------------------------------------
 Report on small energy denominators, large coefficients, and large energy contributions.
CASE  SYMM ACTIVE-MIX  NON-ACTIVE INDICES          DENOMINATOR     RHS VALUE       COEFFICIENT     CONTRIBUTION
ATVX     1  Mu1.0001  Se1.026                       0.23130271     -0.00000000      0.00000000     -0.00000000
ATVX     1  Mu1.0002  Se1.026                       0.23130271     -0.00000000      0.00000000     -0.00000000
ATVX     1  Mu1.0003  Se1.026                       0.26706301      0.00000000     -0.00000000     -0.00000000
ATVX     1  Mu1.0226  Se1.031                       2.00547167      0.06730199     -0.03260853     -0.00219462
ATVX     1  Mu1.0227  Se1.032                       2.00547167     -0.06730199      0.03260853     -0.00219462
AIVX     1  Mu1.0091  In1.011 Se1.033               3.47337898     -0.09527521      0.02790552     -0.00265870
AIVX     1  Mu1.0031  In1.011 Se1.036               3.56232092     -0.14747117      0.04067502     -0.00599839
AIVX     1  Mu1.0042  In1.011 Se1.037               3.72176090      0.10555127     -0.02784990     -0.00293959
BVATM    1  Mu1.0001  Se1.032 Se1.031               2.25680130     -0.05620056      0.02572478     -0.00144575
--
 
   (Skipping property calculation,
    use PROP keyword to activate)
--
 
  Total CASPT2 energies:
::    CASPT2 Root  1     Total energy:  -1345.87987679
 
  A NEW JOBIPH FILE NAMED 'JOBMIX' IS PREPARED.
********************************************************************************
--- Stop Module: caspt2 at Tue Dec 24 03:59:23 2024 /rc=_RC_ALL_IS_WELL_ ---
*** files: xmldump
    saved to directory /home/grierjones/DDCASPT2/iron_oxo_DDCASPT2/cluster/2.47
--- Module caspt2 spent 5 minutes 26 seconds ---

>>> EXPORT i = B

>>> EXPORT j = P

>>> IF (-FILE GMJ_e2_${i}_${j}.csv)

>>> COPY /tmp/2.47/GMJ_RHS_B_P.csv /home/grierjones/DDCASPT2/iron_oxo_DDCASPT2/cluster/2.47/GMJ_RHS_B_P.csv

>>> COPY /tmp/2.47/GMJ_IVECW_B_P.csv /home/grierjones/DDCASPT2/iron_oxo_DDCASPT2/cluster/2.47/GMJ_IVECW_B_P.csv

>>> COPY /tmp/2.47/GMJ_IVECX_B_P.csv /home/grierjones/DDCASPT2/iron_oxo_DDCASPT2/cluster/2.47/GMJ_IVECX_B_P.csv

>>> COPY /tmp/2.47/GMJ_IVECC2_B_P.csv /home/grierjones/DDCASPT2/iron_oxo_DDCASPT2/cluster/2.47/GMJ_IVECC2_B_P.csv

>>> COPY /tmp/2.47/GMJ_e2_B_P.csv /home/grierjones/DDCASPT2/iron_oxo_DDCASPT2/cluster/2.47/GMJ_e2_B_P.csv

>>> END FOREACH

>>> EXPORT j = M

>>> IF (-FILE GMJ_e2_${i}_${j}.csv)

>>> COPY /tmp/2.47/GMJ_RHS_B_M.csv /home/grierjones/DDCASPT2/iron_oxo_DDCASPT2/cluster/2.47/GMJ_RHS_B_M.csv

>>> COPY /tmp/2.47/GMJ_IVECW_B_M.csv /home/grierjones/DDCASPT2/iron_oxo_DDCASPT2/cluster/2.47/GMJ_IVECW_B_M.csv

>>> COPY /tmp/2.47/GMJ_IVECX_B_M.csv /home/grierjones/DDCASPT2/iron_oxo_DDCASPT2/cluster/2.47/GMJ_IVECX_B_M.csv

>>> COPY /tmp/2.47/GMJ_IVECC2_B_M.csv /home/grierjones/DDCASPT2/iron_oxo_DDCASPT2/cluster/2.47/GMJ_IVECC2_B_M.csv

>>> COPY /tmp/2.47/GMJ_e2_B_M.csv /home/grierjones/DDCASPT2/iron_oxo_DDCASPT2/cluster/2.47/GMJ_e2_B_M.csv

>>> END FOREACH

>>> END FOREACH

>>> EXPORT i = E

>>> EXPORT j = P

>>> IF (-FILE GMJ_e2_${i}_${j}.csv)

>>> COPY /tmp/2.47/GMJ_RHS_E_P.csv /home/grierjones/DDCASPT2/iron_oxo_DDCASPT2/cluster/2.47/GMJ_RHS_E_P.csv

>>> COPY /tmp/2.47/GMJ_IVECW_E_P.csv /home/grierjones/DDCASPT2/iron_oxo_DDCASPT2/cluster/2.47/GMJ_IVECW_E_P.csv

>>> COPY /tmp/2.47/GMJ_IVECX_E_P.csv /home/grierjones/DDCASPT2/iron_oxo_DDCASPT2/cluster/2.47/GMJ_IVECX_E_P.csv

>>> COPY /tmp/2.47/GMJ_IVECC2_E_P.csv /home/grierjones/DDCASPT2/iron_oxo_DDCASPT2/cluster/2.47/GMJ_IVECC2_E_P.csv

>>> COPY /tmp/2.47/GMJ_e2_E_P.csv /home/grierjones/DDCASPT2/iron_oxo_DDCASPT2/cluster/2.47/GMJ_e2_E_P.csv

>>> END FOREACH

>>> EXPORT j = M

>>> IF (-FILE GMJ_e2_${i}_${j}.csv)

>>> COPY /tmp/2.47/GMJ_RHS_E_M.csv /home/grierjones/DDCASPT2/iron_oxo_DDCASPT2/cluster/2.47/GMJ_RHS_E_M.csv

>>> COPY /tmp/2.47/GMJ_IVECW_E_M.csv /home/grierjones/DDCASPT2/iron_oxo_DDCASPT2/cluster/2.47/GMJ_IVECW_E_M.csv

>>> COPY /tmp/2.47/GMJ_IVECX_E_M.csv /home/grierjones/DDCASPT2/iron_oxo_DDCASPT2/cluster/2.47/GMJ_IVECX_E_M.csv

>>> COPY /tmp/2.47/GMJ_IVECC2_E_M.csv /home/grierjones/DDCASPT2/iron_oxo_DDCASPT2/cluster/2.47/GMJ_IVECC2_E_M.csv

>>> COPY /tmp/2.47/GMJ_e2_E_M.csv /home/grierjones/DDCASPT2/iron_oxo_DDCASPT2/cluster/2.47/GMJ_e2_E_M.csv

>>> END FOREACH

>>> END FOREACH

>>> EXPORT i = F

>>> EXPORT j = P

>>> IF (-FILE GMJ_e2_${i}_${j}.csv)

>>> COPY /tmp/2.47/GMJ_RHS_F_P.csv /home/grierjones/DDCASPT2/iron_oxo_DDCASPT2/cluster/2.47/GMJ_RHS_F_P.csv

>>> COPY /tmp/2.47/GMJ_IVECW_F_P.csv /home/grierjones/DDCASPT2/iron_oxo_DDCASPT2/cluster/2.47/GMJ_IVECW_F_P.csv

>>> COPY /tmp/2.47/GMJ_IVECX_F_P.csv /home/grierjones/DDCASPT2/iron_oxo_DDCASPT2/cluster/2.47/GMJ_IVECX_F_P.csv

>>> COPY /tmp/2.47/GMJ_IVECC2_F_P.csv /home/grierjones/DDCASPT2/iron_oxo_DDCASPT2/cluster/2.47/GMJ_IVECC2_F_P.csv

>>> COPY /tmp/2.47/GMJ_e2_F_P.csv /home/grierjones/DDCASPT2/iron_oxo_DDCASPT2/cluster/2.47/GMJ_e2_F_P.csv

>>> END FOREACH

>>> EXPORT j = M

>>> IF (-FILE GMJ_e2_${i}_${j}.csv)

>>> COPY /tmp/2.47/GMJ_RHS_F_M.csv /home/grierjones/DDCASPT2/iron_oxo_DDCASPT2/cluster/2.47/GMJ_RHS_F_M.csv

>>> COPY /tmp/2.47/GMJ_IVECW_F_M.csv /home/grierjones/DDCASPT2/iron_oxo_DDCASPT2/cluster/2.47/GMJ_IVECW_F_M.csv

>>> COPY /tmp/2.47/GMJ_IVECX_F_M.csv /home/grierjones/DDCASPT2/iron_oxo_DDCASPT2/cluster/2.47/GMJ_IVECX_F_M.csv

>>> COPY /tmp/2.47/GMJ_IVECC2_F_M.csv /home/grierjones/DDCASPT2/iron_oxo_DDCASPT2/cluster/2.47/GMJ_IVECC2_F_M.csv

>>> COPY /tmp/2.47/GMJ_e2_F_M.csv /home/grierjones/DDCASPT2/iron_oxo_DDCASPT2/cluster/2.47/GMJ_e2_F_M.csv

>>> END FOREACH

>>> END FOREACH

>>> EXPORT i = G

>>> EXPORT j = P

>>> IF (-FILE GMJ_e2_${i}_${j}.csv)

>>> COPY /tmp/2.47/GMJ_RHS_G_P.csv /home/grierjones/DDCASPT2/iron_oxo_DDCASPT2/cluster/2.47/GMJ_RHS_G_P.csv

>>> COPY /tmp/2.47/GMJ_IVECW_G_P.csv /home/grierjones/DDCASPT2/iron_oxo_DDCASPT2/cluster/2.47/GMJ_IVECW_G_P.csv

>>> COPY /tmp/2.47/GMJ_IVECX_G_P.csv /home/grierjones/DDCASPT2/iron_oxo_DDCASPT2/cluster/2.47/GMJ_IVECX_G_P.csv

>>> COPY /tmp/2.47/GMJ_IVECC2_G_P.csv /home/grierjones/DDCASPT2/iron_oxo_DDCASPT2/cluster/2.47/GMJ_IVECC2_G_P.csv

>>> COPY /tmp/2.47/GMJ_e2_G_P.csv /home/grierjones/DDCASPT2/iron_oxo_DDCASPT2/cluster/2.47/GMJ_e2_G_P.csv

>>> END FOREACH

>>> EXPORT j = M

>>> IF (-FILE GMJ_e2_${i}_${j}.csv)

>>> COPY /tmp/2.47/GMJ_RHS_G_M.csv /home/grierjones/DDCASPT2/iron_oxo_DDCASPT2/cluster/2.47/GMJ_RHS_G_M.csv

>>> COPY /tmp/2.47/GMJ_IVECW_G_M.csv /home/grierjones/DDCASPT2/iron_oxo_DDCASPT2/cluster/2.47/GMJ_IVECW_G_M.csv

>>> COPY /tmp/2.47/GMJ_IVECX_G_M.csv /home/grierjones/DDCASPT2/iron_oxo_DDCASPT2/cluster/2.47/GMJ_IVECX_G_M.csv

>>> COPY /tmp/2.47/GMJ_IVECC2_G_M.csv /home/grierjones/DDCASPT2/iron_oxo_DDCASPT2/cluster/2.47/GMJ_IVECC2_G_M.csv

>>> COPY /tmp/2.47/GMJ_e2_G_M.csv /home/grierjones/DDCASPT2/iron_oxo_DDCASPT2/cluster/2.47/GMJ_e2_G_M.csv

>>> END FOREACH

>>> END FOREACH

>>> EXPORT i = H

>>> EXPORT j = P

>>> IF (-FILE GMJ_e2_${i}_${j}.csv)

>>> COPY /tmp/2.47/GMJ_RHS_H_P.csv /home/grierjones/DDCASPT2/iron_oxo_DDCASPT2/cluster/2.47/GMJ_RHS_H_P.csv

>>> COPY /tmp/2.47/GMJ_IVECW_H_P.csv /home/grierjones/DDCASPT2/iron_oxo_DDCASPT2/cluster/2.47/GMJ_IVECW_H_P.csv

>>> COPY /tmp/2.47/GMJ_IVECX_H_P.csv /home/grierjones/DDCASPT2/iron_oxo_DDCASPT2/cluster/2.47/GMJ_IVECX_H_P.csv

>>> COPY /tmp/2.47/GMJ_IVECC2_H_P.csv /home/grierjones/DDCASPT2/iron_oxo_DDCASPT2/cluster/2.47/GMJ_IVECC2_H_P.csv

>>> COPY /tmp/2.47/GMJ_e2_H_P.csv /home/grierjones/DDCASPT2/iron_oxo_DDCASPT2/cluster/2.47/GMJ_e2_H_P.csv

>>> END FOREACH

>>> EXPORT j = M

>>> IF (-FILE GMJ_e2_${i}_${j}.csv)

>>> COPY /tmp/2.47/GMJ_RHS_H_M.csv /home/grierjones/DDCASPT2/iron_oxo_DDCASPT2/cluster/2.47/GMJ_RHS_H_M.csv

>>> COPY /tmp/2.47/GMJ_IVECW_H_M.csv /home/grierjones/DDCASPT2/iron_oxo_DDCASPT2/cluster/2.47/GMJ_IVECW_H_M.csv

>>> COPY /tmp/2.47/GMJ_IVECX_H_M.csv /home/grierjones/DDCASPT2/iron_oxo_DDCASPT2/cluster/2.47/GMJ_IVECX_H_M.csv

>>> COPY /tmp/2.47/GMJ_IVECC2_H_M.csv /home/grierjones/DDCASPT2/iron_oxo_DDCASPT2/cluster/2.47/GMJ_IVECC2_H_M.csv

>>> COPY /tmp/2.47/GMJ_e2_H_M.csv /home/grierjones/DDCASPT2/iron_oxo_DDCASPT2/cluster/2.47/GMJ_e2_H_M.csv

>>> END FOREACH

>>> END FOREACH

>>> EXPORT i = A

>>> IF (-FILE GMJ_e2_$i.csv)

>>> COPY /tmp/2.47/GMJ_RHS_A.csv /home/grierjones/DDCASPT2/iron_oxo_DDCASPT2/cluster/2.47/GMJ_RHS_A.csv

>>> COPY /tmp/2.47/GMJ_IVECW_A.csv /home/grierjones/DDCASPT2/iron_oxo_DDCASPT2/cluster/2.47/GMJ_IVECW_A.csv

>>> COPY /tmp/2.47/GMJ_IVECX_A.csv /home/grierjones/DDCASPT2/iron_oxo_DDCASPT2/cluster/2.47/GMJ_IVECX_A.csv

>>> COPY /tmp/2.47/GMJ_IVECC2_A.csv /home/grierjones/DDCASPT2/iron_oxo_DDCASPT2/cluster/2.47/GMJ_IVECC2_A.csv

>>> COPY /tmp/2.47/GMJ_e2_A.csv /home/grierjones/DDCASPT2/iron_oxo_DDCASPT2/cluster/2.47/GMJ_e2_A.csv

>>> END FOREACH

>>> EXPORT i = C

>>> IF (-FILE GMJ_e2_$i.csv)

>>> COPY /tmp/2.47/GMJ_RHS_C.csv /home/grierjones/DDCASPT2/iron_oxo_DDCASPT2/cluster/2.47/GMJ_RHS_C.csv

>>> COPY /tmp/2.47/GMJ_IVECW_C.csv /home/grierjones/DDCASPT2/iron_oxo_DDCASPT2/cluster/2.47/GMJ_IVECW_C.csv

>>> COPY /tmp/2.47/GMJ_IVECX_C.csv /home/grierjones/DDCASPT2/iron_oxo_DDCASPT2/cluster/2.47/GMJ_IVECX_C.csv

>>> COPY /tmp/2.47/GMJ_IVECC2_C.csv /home/grierjones/DDCASPT2/iron_oxo_DDCASPT2/cluster/2.47/GMJ_IVECC2_C.csv

>>> COPY /tmp/2.47/GMJ_e2_C.csv /home/grierjones/DDCASPT2/iron_oxo_DDCASPT2/cluster/2.47/GMJ_e2_C.csv

>>> END FOREACH

>>> EXPORT i = D

>>> IF (-FILE GMJ_e2_$i.csv)

>>> COPY /tmp/2.47/GMJ_RHS_D.csv /home/grierjones/DDCASPT2/iron_oxo_DDCASPT2/cluster/2.47/GMJ_RHS_D.csv

>>> COPY /tmp/2.47/GMJ_IVECW_D.csv /home/grierjones/DDCASPT2/iron_oxo_DDCASPT2/cluster/2.47/GMJ_IVECW_D.csv

>>> COPY /tmp/2.47/GMJ_IVECX_D.csv /home/grierjones/DDCASPT2/iron_oxo_DDCASPT2/cluster/2.47/GMJ_IVECX_D.csv

>>> COPY /tmp/2.47/GMJ_IVECC2_D.csv /home/grierjones/DDCASPT2/iron_oxo_DDCASPT2/cluster/2.47/GMJ_IVECC2_D.csv

>>> COPY /tmp/2.47/GMJ_e2_D.csv /home/grierjones/DDCASPT2/iron_oxo_DDCASPT2/cluster/2.47/GMJ_e2_D.csv

>>> END FOREACH

.########################.
.# Non-zero return code #.
.########################.

    Timing: Wall=424.02 User=420.73 System=3.17
************************************
*** WorkDir at /tmp/2.47 cleaned ***
************************************
