[Molden Format]
[N_Atoms]
                     2
[Atoms] (AU)
B1          1      5           0.00000000      0.00000000      0.00000000
LI2         2      3           0.00000000      0.00000000      3.96842486
[Charge] (Mulliken)
  0.901015929961982     
   1.09898407003801     
[GTO] (AU)
   1
   s  14
  3.336021700E+04  1.039699991E-04
  4.972095200E+03  5.254399956E-04
  1.125641700E+03  2.509059979E-03
  3.164913600E+02  1.031887991E-02
  1.020072600E+02  3.636632969E-02
  3.629587300E+01  1.064607991E-01
  1.397141000E+01  2.403999880E-01
  5.741156000E+00  3.748581168E-01
  2.494268000E+00  3.100066974E-01
  1.114202000E+00  7.922455933E-02
  4.215490000E-01 -4.947589958E-03
  1.696330000E-01 -7.737119935E-03
  6.853500000E-02 -1.501079987E-03
  2.398700000E-02 -1.333299989E-04
   s  14
  3.336021700E+04 -2.030000008E-05
  4.972095200E+03 -1.025700004E-04
  1.125641700E+03 -4.911300020E-04
  3.164913600E+02 -2.026570008E-03
  1.020072600E+02 -7.261010030E-03
  3.629587300E+01 -2.197722009E-02
  1.397141000E+01 -5.408428022E-02
  5.741156000E+00 -1.022402604E-01
  2.494268000E+00 -1.423595206E-01
  1.114202000E+00 -4.658690019E-02
  4.215490000E-01  3.799402916E-01
  1.696330000E-01  5.890463624E-01
  6.853500000E-02  1.749075107E-01
  2.398700000E-02 -1.142030005E-03
   p   9
  5.500000000E+01  1.229800005E-03
  1.336610100E+01  8.827380035E-03
  4.135394000E+00  3.843340015E-02
  1.481256000E+00  1.150031805E-01
  6.021360000E-01  2.733674011E-01
  2.556360000E-01  4.061972116E-01
  1.111510000E-01  3.014967912E-01
  4.764800000E-02  7.684809030E-02
  1.667700000E-02 -8.170000032E-06
 
   2
   s  14
  9.497934400E+03  9.668999974E-05
  1.416811200E+03  6.087099984E-04
  3.214599400E+02  3.101519992E-03
  9.112416300E+01  1.266904997E-02
  2.999989100E+01  4.248012989E-02
  1.101763100E+01  1.150183297E-01
  4.372801000E+00  2.398650094E-01
  1.831256000E+00  3.584300090E-01
  8.022610000E-01  3.048527792E-01
  3.626480000E-01  8.824261976E-02
  1.139950000E-01 -8.445899977E-04
  5.123700000E-02 -7.943959979E-03
  2.246800000E-02 -3.764419990E-03
  7.860000000E-03 -8.868999976E-05
   s  14
  9.497934400E+03 -1.244999993E-05
  1.416811200E+03 -7.838999954E-05
  3.214599400E+02 -4.007099976E-04
  9.112416300E+01 -1.645249990E-03
  2.999989100E+01 -5.634599967E-03
  1.101763100E+01 -1.590780991E-02
  4.372801000E+00 -3.612581979E-02
  1.831256000E+00 -6.459927962E-02
  8.022610000E-01 -1.008321794E-01
  3.626480000E-01 -9.757613942E-02
  1.139950000E-01  2.301215886E-01
  5.123700000E-02  6.102389764E-01
  2.246800000E-02  2.849406083E-01
  7.860000000E-03  4.026899976E-03
   p   9
  1.311950400E+01  1.524940000E-03
  3.077424200E+00  8.314830000E-03
  1.098800500E+00  1.933203000E-02
  4.357784000E-01  4.934293000E-02
  1.802432000E-01  1.623554000E-01
  7.613330000E-02  3.847505400E-01
  3.254650000E-02  4.336100400E-01
  1.401820000E-02  1.287005900E-01
  4.906400000E-03 -1.018520000E-03
 
[MO]
Sym=     1a  
Ene=    -8.4670
Spin= Alpha
Occup=    2.00000
   1         0.99989822
   2        -0.00036415
   3         0.00000000
   4        -0.00000000
   5        -0.00256364
   6         0.00094155
   7         0.00107723
   8         0.00000000
   9         0.00000000
  10        -0.00069775
Sym=     2a  
Ene=    -3.0139
Spin= Alpha
Occup=    2.00000
   1        -0.00042909
   2         0.00002835
   3         0.00000000
   4        -0.00000000
   5         0.00207414
   6         0.99969992
   7         0.01146146
   8        -0.00000000
   9        -0.00000000
  10        -0.00213173
Sym=     3a  
Ene=    -1.1200
Spin= Alpha
Occup=    1.93880
   1         0.00592451
   2         1.04175465
   3         0.00000000
   4         0.00000000
   5         0.16500913
   6        -0.07447730
   7        -0.06984923
   8        -0.00000000
   9        -0.00000000
  10         0.04048172
Sym=     4a  
Ene=     0.0000
Spin= Alpha
Occup=    0.06120
   1         0.00000000
   2        -0.00000000
   3         0.97307174
   4        -0.32577773
   5        -0.00000000
   6         0.00000000
   7        -0.00000000
   8        -0.09144656
   9         0.03061568
  10         0.00000000
Sym=     5a  
Ene=    -0.5355
Spin= Alpha
Occup=    0.00000
   1        -0.00968313
   2        -0.22633055
   3        -0.00000000
   4        -0.00000000
   5         0.95430089
   6        -0.09603972
   7         0.09912365
   8        -0.00000000
   9        -0.00000000
  10        -0.09946423
Sym=     6a  
Ene=    -0.5150
Spin= Alpha
Occup=    0.00000
   1         0.00000000
   2        -0.00000000
   3         0.30722508
   4         0.91765645
   5         0.00000000
   6        -0.00000000
   7         0.00000000
   8         0.02880907
   9         0.08605036
  10        -0.00000000
Sym=     7a  
Ene=    -0.3244
Spin= Alpha
Occup=    0.00000
   1        -0.04041280
   2        -0.34602461
   3         0.00000000
   4         0.00000000
   5        -0.32150822
   6         0.04201490
   7         1.10137631
   8         0.00000000
   9        -0.00000000
  10         0.13310411
Sym=     8a  
Ene=    -0.2794
Spin= Alpha
Occup=    0.00000
   1         0.00000000
   2         0.00000000
   3        -0.22636183
   4         0.07578438
   5         0.00000000
   6        -0.00000000
   7        -0.00000000
   8         0.99485970
   9        -0.33307219
  10         0.00000000
Sym=     9a  
Ene=    -0.2720
Spin= Alpha
Occup=    0.00000
   1        -0.00000000
   2         0.00000000
   3        -0.13223902
   4        -0.39498726
   5        -0.00000000
   6         0.00000000
   7         0.00000000
   8         0.33323332
   9         0.99534096
  10         0.00000000
Sym=    10a  
Ene=    -0.2115
Spin= Alpha
Occup=    0.00000
   1        -0.11930762
   2        -0.87826243
   3         0.00000000
   4         0.00000000
   5        -0.36761601
   6         0.07944552
   7         0.55730829
   8         0.00000000
   9         0.00000000
  10        -1.27664657
