   This run of MOLCAS is using the pymolcas driver

                             OPE
                             OPE          NMOL  CASOP  ENMOLC A   SO
                 OPE        NMOLC        AS  OP EN  MO LC     AS  OP
                OPENM       OL CA        SO  PE NM  OL CA     SOP EN
                OP EN      MO   LC       AS  OP ENMOL  CASO   PENMOL
                OP  EN     MO   LC       AS  OP EN     MO     LC ASO
               OP   E  NMOL  C  AS       OP  EN MO     LC     AS  OP
               OP  E   NMO   LC AS        OPEN  MO     LCASOP EN   M
               O  PEN   MO  LCA  SO
            OPE   NMO   L   CAS    OP
        OPENMOL  CASOP     ENMOL   CASOPE
     OPENMOLCA   SOPENMOLCASOPEN   MOLCASOPE
    OPENMOLCAS   OP           EN   MOL    CAS
    OPENMOLCAS       OP  ENM        O     LCA
    OPENMOLCAS    OPEN  MOLCASO     P  E  NMO
    OPENMOLCAS     OP               E  N  MOL
    OPENMOLCA   SO           PENM   O  L  CAS    OPEN    MO    LCAS
    OPENMOLCA   SOP           ENM   O  L  CAS   OP  EN  MOLC  AS   O
    OPENMOLCA   SOPE           NM      O  LCA   S      OP  EN MO
    OPENMOLC                AS         O  PEN   M      OL  CA  SOPE
    OPENMO        LCASOPE  NMOL        C  ASO   P      ENMOLC     AS
    OPE     NMO      LCA  SO     P     E   NM   OL  CA SO  PE N   MO
          OPENMOLCA            SOPE   NMO        LCAS  O    P  ENMO
     OPENMOLCASOPENMOLCASOPENMOLCASOPENMOLCA
        OPENMOLCASOPENMOLCASOPENMOLCASOPE
            OPENMOLCASOPENMOLCASOPENM
               OPENMOLCASOPENMOLCA        version: ea724fe96-dirty
                   OPENMOLCASO
                       OPE                tag:

 OpenMolcas is free software; you can redistribute it and/or modify it
 under the terms of the GNU Lesser General Public License version 2.1.
 OpenMolcas is distributed in the hope that it will be useful, but it
 is provided "as is" and without any express or implied warranties.
 For more details see the full text of the license in the file
 LICENSE or in <http://www.gnu.org/licenses/>.

                 Copyright (C) The OpenMolcas Authors
           For the author list and the recommended citation,
                   consult the file CONTRIBUTORS.md

           *************************************************
           * pymolcas version py2.28                       *
           *   build c4a6d18ded8cb6cad61d2372a9abd97c      *
           *   (after the EMIL interpreter by V. Veryazov) *
           *************************************************

configuration info
------------------
C Compiler ID: Intel
C flags: -std=gnu99
Fortran Compiler ID: Intel
Fortran flags: -fpp -i8 -r8 -heap-arrays
Definitions: _MOLCAS_;_I8_;_LINUX_
Parallel: OFF (GA=OFF)


   -------------------------------------------------------------------------------
  |
  |              Project: 5.82
  |       Submitted from: /home/grierjones/DDCASPT2/iron_oxo_DDCASPT2/cluster/5.82
  |         Scratch area: /tmp/5.82
  |      Save outputs to: /home/grierjones/DDCASPT2/iron_oxo_DDCASPT2/cluster/5.82
  |               Molcas: /home/grierjones/Test/build
  |
  | Scratch area is empty
  |
  |       MOLCAS_DRIVER = /usr/local/pymolcas
  | MOLCAS_KEEP_WORKDIR = NO
  |  MOLCAS_NEW_WORKDIR = YES
  |       MOLCAS_NPROCS = 1
  |        MOLCAS_PRINT = NORMAL
  |       MOLCAS_SOURCE = /home/grierjones/Test/build
  |    MOLCAS_STRUCTURE = 0
  |
   -------------------------------------------------------------------------------

++ ---------   Input file   ---------

&GATEWAY
coord=5.82.xyz
Basis = ANO-RCC-VDZP
Group = nosymm
Expert
End of Input

&SEWARD
End of Input

&SCF
UHF
charge
2
spin
5
FileOrb
/home/grierjones/DDCASPT2/iron_oxo_DDCASPT2/cluster/5.80/5.80.UhfOrb

>>> COPY $WorkDir/5.82.scf.h5 $CurrDir/

&RASSCF
Title= RASSCF
FileOrb
/home/grierjones/DDCASPT2/iron_oxo_DDCASPT2/cluster/5.80/5.80.RasOrb
NACTEL
10 0 0
RAS2
14
Symmetry
1
Spin
5
charge
2
orblisting
all
ITERation
300 200

>>> COPY $WorkDir/5.82.rasscf.h5 $CurrDir/

>>> COPY $WorkDir/GMJ_Fock_MO.csv $CurrDir/5.82.GMJ_Fock_MO.csv

>>> COPY $WorkDir/GMJ_PT2_Fock_MO.csv $CurrDir/5.82.GMJ_PT2_Fock_MO.csv

&MOTRA
Frozen=0
LUMORB

>>> COPY $WorkDir/GMJ_one_int_indx.csv $CurrDir/5.82.GMJ_one_int_indx.csv

>>> COPY $WorkDir/GMJ_one_int.csv $CurrDir/5.82.GMJ_one_int.csv

>>> COPY $WorkDir/GMJ_two_int_indx.csv $CurrDir/5.82.GMJ_two_int_indx.csv

>>> COPY $WorkDir/GMJ_two_int.csv $CurrDir/5.82.GMJ_two_int.csv

&CASPT2
Frozen
0
MAXITER
50

>>> FOREACH i IN (B,E,F,G,H)

  >>> FOREACH j IN (P,M)

    >>> IF (-FILE GMJ_e2_${i}_${j}.csv)

      >>> COPY $WorkDir/GMJ_RHS_${i}_${j}.csv $CurrDir/GMJ_RHS_${i}_${j}.csv

      >>> COPY $WorkDir/GMJ_IVECW_${i}_${j}.csv $CurrDir/GMJ_IVECW_${i}_${j}.csv

      >>> COPY $WorkDir/GMJ_IVECX_${i}_${j}.csv $CurrDir/GMJ_IVECX_${i}_${j}.csv

      >>> COPY $WorkDir/GMJ_IVECC2_${i}_${j}.csv $CurrDir/GMJ_IVECC2_${i}_${j}.csv

      >>> COPY $WorkDir/GMJ_e2_${i}_${j}.csv $CurrDir/GMJ_e2_${i}_${j}.csv

    >>> END IF

  >>> END FOREACH

>>> END FOREACH

>>> FOREACH i IN (A,C,D)

  >>> IF (-FILE GMJ_e2_$i.csv)

    >>> COPY $WorkDir/GMJ_RHS_$i.csv $CurrDir/GMJ_RHS_$i.csv

    >>> COPY $WorkDir/GMJ_IVECW_$i.csv $CurrDir/GMJ_IVECW_$i.csv

    >>> COPY $WorkDir/GMJ_IVECX_$i.csv $CurrDir/GMJ_IVECX_$i.csv

    >>> COPY $WorkDir/GMJ_IVECC2_$i.csv $CurrDir/GMJ_IVECC2_$i.csv

    >>> COPY $WorkDir/GMJ_e2_$i.csv $CurrDir/GMJ_e2_$i.csv

  >>> END IF

>>> END FOREACH

-- ----------------------------------

--- Start Module: gateway at Wed Dec 25 11:06:56 2024 ---
 
()()()()()()()()()()()()()()()()()()()()()()()()()()()()()()()()()()()()()()()()()()()()()()()()()()

                                              &GATEWAY

                                   only a single process is used
                       available to each process: 2.0 GB of memory, 1 thread?
()()()()()()()()()()()()()()()()()()()()()()()()()()()()()()()()()()()()()()()()()()()()()()()()()()
 
 ###############################################################################
 ###############################################################################
 ###                                                                         ###
 ###                                                                         ###
 ###                                                                         ###
 ###    WARNING: EXPERT option is ON!                                        ###
 ###                                                                         ###
 ###                                                                         ###
 ###############################################################################
 ###############################################################################
 
++    Symmetry information:
      ---------------------
 
                    Character Table for C1 
 
                             E  
                    a        1  x, y, xy, Rz, z, xz, Ry, yz, Rx, I
--
 
 
++    Basis set information:
      ----------------------
 
 
      Basis set label: O.ANO-RCC...3S2P1D.
 
      Electronic valence basis set:
      ------------------
      Associated Effective Charge   8.000000 au
      Associated Actual Charge      8.000000 au
      Nuclear Model: Point charge
 
      Shell  nPrim  nBasis  Cartesian Spherical Contaminant
         s      14       3        X                  
         p       9       2        X                  
         d       4       1                 X         
 
 
      Basis set label: FE.ANO-RCC...5S4P2D1F.
 
      Electronic valence basis set:
      ------------------
      Associated Effective Charge  26.000000 au
      Associated Actual Charge     26.000000 au
      Nuclear Model: Point charge
 
      Shell  nPrim  nBasis  Cartesian Spherical Contaminant
         s      21       5        X                  
         p      15       4        X                  
         d      10       2                 X         
         f       6       1                 X         
--
 
 
++    Molecular structure info:
      -------------------------
 
                    ************************************************ 
                    **** Cartesian Coordinates / Bohr, Angstrom **** 
                    ************************************************ 
 
     Center  Label                x              y              z                     x              y              z
        1      O1               0.000000       0.000000       7.008654              0.000000       0.000000       3.708820
        2      FE2              0.000000       0.000000      -3.985092              0.000000       0.000000      -2.108820
--
 
 
            Nuclear Potential Energy             18.91984719 au
 
 ###############################################################################
 ###############################################################################
 ###                                                                         ###
 ###                                                                         ###
 ###    There were warnings during the execution                             ###
 ###    Please, check the output with care!                                  ###
 ###                                                                         ###
 ###                                                                         ###
 ###############################################################################
 ###############################################################################
--- Stop Module: gateway at Wed Dec 25 11:06:56 2024 /rc=_RC_ALL_IS_WELL_ ---
*** files: xmldump
    saved to directory /home/grierjones/DDCASPT2/iron_oxo_DDCASPT2/cluster/5.82

--- Start Module: seward at Wed Dec 25 11:06:56 2024 ---
 
()()()()()()()()()()()()()()()()()()()()()()()()()()()()()()()()()()()()()()()()()()()()()()()()()()

                                              &SEWARD

                                   only a single process is used
                       available to each process: 2.0 GB of memory, 1 thread?
()()()()()()()()()()()()()()()()()()()()()()()()()()()()()()()()()()()()()()()()()()()()()()()()()()
 
 ###############################################################################
 ###############################################################################
 ###                                                                         ###
 ###                                                                         ###
 ###                                                                         ###
 ###    WARNING: EXPERT option is ON!                                        ###
 ###                                                                         ###
 ###                                                                         ###
 ###############################################################################
 ###############################################################################
               SEWARD will generate:
                  Multipole Moment integrals up to order  2
                  Kinetic Energy integrals
                  Nuclear Attraction integrals (point charge)
                  One-Electron Hamiltonian integrals
                  Velocity integrals
                  Relativistic Douglas-Kroll-Hess integrals:
                    - Parametrization         : EXP
                    - DKH order of Hamiltonian: 2
                    - DKH order of Properties : 0
                         - multipole moment operators
                         - electric potential operators
                         - contact operators
                  Atomic mean-field integrals
                  Two-Electron Repulsion integrals
 
                   Integrals are discarded if absolute value <: 0.10E-13
                   Integral cutoff threshold is set to       <: 0.10E-15
 
            Nuclear Potential Energy             18.91984719 au
 
 
      Basis set specifications :
      Symmetry species         a  
      Basis functions           48
 
 
  Input file to MOLDEN was generated!
 
 ###############################################################################
 ###############################################################################
 ###                                                                         ###
 ###                                                                         ###
 ###    There were warnings during the execution                             ###
 ###    Please, check the output with care!                                  ###
 ###                                                                         ###
 ###                                                                         ###
 ###############################################################################
 ###############################################################################
--- Stop Module: seward at Wed Dec 25 11:06:57 2024 /rc=_RC_ALL_IS_WELL_ ---
*** files: 5.82.GssOrb 5.82.guessorb.h5 5.82.guessorb.molden xmldump
    saved to directory /home/grierjones/DDCASPT2/iron_oxo_DDCASPT2/cluster/5.82

*** symbolic link created: INPORB -> 5.82.GssOrb
--- Start Module: scf at Wed Dec 25 11:06:57 2024 ---
 
()()()()()()()()()()()()()()()()()()()()()()()()()()()()()()()()()()()()()()()()()()()()()()()()()()

                                                &SCF

                                   only a single process is used
                       available to each process: 2.0 GB of memory, 1 thread?
()()()()()()()()()()()()()()()()()()()()()()()()()()()()()()()()()()()()()()()()()()()()()()()()()()
 
 *** Possible bug in opening file
 *** isFreeUnit resets the unit number
++    Input section:
      --------------
 
      Header of the integral files:
      
       Integrals generated by seward 4.2.0  , Wed Dec 25 11:06:56 2024
 
 
      Cartesian coordinates in Angstrom:
      -----------------------------------------------------
      No.  Label        X            Y            Z        
      -----------------------------------------------------
       1   O1         0.00000000   0.00000000   3.70882000
       2   FE2        0.00000000   0.00000000  -2.10882000
      -----------------------------------------------------
      Nuclear repulsion energy =   18.91984719
--
 
++    Orbital specifications:
      -----------------------
 
      Symmetry species               1
                                     a
      Frozen orbitals                0
      Occupied orbitals alpha       18
      Occupied orbitals beta        14
      Secondary orbitals alpha      30
      Secondary orbitals beta       34
      Deleted orbitals               0
      Total number of orbitals      48
      Number of basis functions     48
--
 
      Molecular charge                           2.000
 
++    Optimization specifications:
      ----------------------------
 
      SCF Algorithm: Conventional USCF
      D(i)-D(i-1) density differences are used
      Number of density matrices in core                5
      Maximum number of NDDO SCF iterations           400
      Maximum number of HF SCF iterations             400
      Threshold for SCF energy change            0.10E-08
      Threshold for density matrix               0.10E-03
      Threshold for Fock matrix                  0.15E-03
      Threshold for linear dependence            0.10E-08
      Threshold at which DIIS is turned on       0.15E+00
      Threshold at which QNR/C2DIIS is turned on 0.75E-01
      Threshold for Norm(delta) (QNR/C2DIIS)     0.20E-04
      DIIS extrapolation of the SCF procedure
      All orbitals punched on: UHFORB
--
 
      Input vectors read from INPORB
      Orbital file label: * UHF orbitals
 
 
++ Convergence information
                               UHF SCF        iterations: Energy and convergence statistics
 
Iter     Tot. SCF        One-elec.       Two-elec.     Energy      Max Dij or  Max Fij      DNorm      TNorm      AccCon     Time
         Energy          Energy          Energy        Change      Delta Norm                                                in Sec.
 
 The total and one-electron energies are shifted by a value of      1000. a.u.
 
   1  -345.267804230  -886.369173567   522.181522145   0.00E+00    0.60E-04    0.24E-04     0.80E+01   0.18E+03   None         0.
   2  -345.267804237  -886.369664450   522.182013022  -0.62E-08*   0.29E-04    0.77E-05     0.21E-03   0.18E+03   EDIIS        0.
   3  -345.267804238  -886.369181190   522.181529760  -0.98E-09    0.24E-04    0.12E-04     0.92E-04   0.18E+03   c2DIIS       0.
 
       Convergence after  3 Macro Iterations
--
 
 *****************************************************************************************************************************
 *                                                                                                                           *
 *                                             SCF/KS-DFT Program, Final results                                             *
 *                                                                                                                           *
 *                                                                                                                           *
 *                                                                                                                           *
 *                                                       Final Results                                                       *
 *                                                                                                                           *
 *****************************************************************************************************************************
 
::    Total SCF energy                              -1345.2678042376
      One-electron energy                           -1886.3691811896
      Two-electron energy                             522.1815297598
      Nuclear repulsion energy                         18.9198471922
      Kinetic energy (interpolated)                  1399.3961080647
      Virial theorem                                    0.9613202413
      Total spin, S(S+1)                                7.0175329118
      Total spin, S                                     2.1958362175
      Max non-diagonal density matrix element           0.0000242874
      Max non-diagonal Fock matrix element              0.0000119087
 
 
      All orbitals with orbital energies smaller than  E(LUMO)+0.5 are printed
 
++    Molecular orbitals:
      -------------------
 
      Title: UHF orbitals (alpha)

      Molecular orbitals for symmetry species 1: a  
 
          Orbital            1         2         3         4         5         6         7         8         9        10    
          Energy         -263.8669  -32.6433  -27.7268  -27.7268  -27.6960  -21.4896   -4.5573   -3.1346   -3.1346   -3.0631
          Occ. No.          1.0000    1.0000    1.0000    1.0000    1.0000    1.0000    1.0000    1.0000    1.0000    1.0000
 
        1 O1     1s         0.0000   -0.0000    0.0000    0.0000   -0.0000    1.0000    0.0000   -0.0000   -0.0000    0.0000
        2 O1     2s         0.0000   -0.0000    0.0000    0.0000   -0.0000    0.0003    0.0001   -0.0000   -0.0000    0.0001
        3 O1     3s        -0.0000   -0.0000    0.0000    0.0000   -0.0000   -0.0010    0.0001   -0.0000   -0.0000    0.0001
        4 O1     2px        0.0000    0.0000    0.0000   -0.0000    0.0000   -0.0000    0.0000   -0.0000    0.0000   -0.0000
        5 O1     3px        0.0000    0.0000    0.0000   -0.0000    0.0000    0.0000    0.0000   -0.0000    0.0000   -0.0000
        6 O1     2py       -0.0000   -0.0000   -0.0000   -0.0000   -0.0000    0.0000   -0.0000    0.0000    0.0000    0.0000
        7 O1     3py       -0.0000   -0.0000   -0.0000   -0.0000   -0.0000   -0.0000   -0.0000    0.0000    0.0000    0.0000
        8 O1     2pz        0.0000    0.0000   -0.0000   -0.0000    0.0000   -0.0000   -0.0000    0.0000    0.0000   -0.0000
        9 O1     3pz        0.0000    0.0000   -0.0000   -0.0000    0.0000    0.0000   -0.0001    0.0000    0.0000   -0.0001
       10 O1     3d2-       0.0000   -0.0000   -0.0000    0.0000   -0.0000    0.0000   -0.0000    0.0000   -0.0000    0.0000
       11 O1     3d1-       0.0000    0.0000    0.0000    0.0000    0.0000    0.0000    0.0000   -0.0000   -0.0000   -0.0000
       12 O1     3d0       -0.0000   -0.0000    0.0000    0.0000   -0.0000   -0.0015    0.0000   -0.0000   -0.0000    0.0000
       13 O1     3d1+      -0.0000   -0.0000   -0.0000    0.0000   -0.0000   -0.0000   -0.0000    0.0000   -0.0000    0.0000
       14 O1     3d2+      -0.0000   -0.0000   -0.0000   -0.0000    0.0000    0.0000    0.0000    0.0000    0.0000   -0.0000
       15 FE2    1s         1.0000    0.0000    0.0000    0.0000   -0.0000    0.0000   -0.0000   -0.0000   -0.0000    0.0000
       16 FE2    2s        -0.0000    1.0000    0.0000    0.0000   -0.0003   -0.0000   -0.0023    0.0000    0.0000   -0.0000
       17 FE2    3s         0.0000    0.0023    0.0000    0.0000   -0.0000    0.0000    0.9999    0.0000    0.0000   -0.0013
       18 FE2    4s        -0.0000   -0.0001   -0.0000   -0.0000    0.0000    0.0000    0.0063   -0.0000   -0.0000    0.0007
       19 FE2    5s         0.0000    0.0001   -0.0000   -0.0000   -0.0000    0.0000   -0.0044    0.0000    0.0000   -0.0004
       20 FE2    2px       -0.0000   -0.0000   -0.3487    0.9372   -0.0000   -0.0000    0.0000    0.0008   -0.0019    0.0000
       21 FE2    3px        0.0000   -0.0000   -0.0007    0.0019   -0.0000    0.0000   -0.0000   -0.3753    0.9269   -0.0000
       22 FE2    4px       -0.0000    0.0000    0.0001   -0.0002    0.0000   -0.0000    0.0000   -0.0012    0.0031   -0.0000
       23 FE2    5px        0.0000   -0.0000   -0.0002    0.0006   -0.0000   -0.0000   -0.0000    0.0016   -0.0040    0.0000
       24 FE2    2py        0.0000    0.0000    0.9372    0.3487    0.0001    0.0000   -0.0000   -0.0019   -0.0008   -0.0000
       25 FE2    3py       -0.0000    0.0000    0.0019    0.0007    0.0000   -0.0000    0.0000    0.9269    0.3753    0.0001
       26 FE2    4py        0.0000   -0.0000   -0.0002   -0.0001   -0.0000    0.0000   -0.0000    0.0031    0.0012    0.0000
       27 FE2    5py       -0.0000    0.0000    0.0006    0.0002    0.0000    0.0000    0.0000   -0.0040   -0.0016   -0.0000
       28 FE2    2pz        0.0000    0.0003   -0.0001   -0.0000    1.0000   -0.0000   -0.0000    0.0000    0.0000   -0.0016
       29 FE2    3pz       -0.0000    0.0000   -0.0000   -0.0000    0.0016   -0.0000    0.0013   -0.0001   -0.0000    1.0000
       30 FE2    4pz        0.0000   -0.0000    0.0000    0.0000   -0.0001    0.0000    0.0001   -0.0000   -0.0000    0.0057
       31 FE2    5pz       -0.0000    0.0000   -0.0000   -0.0000    0.0003    0.0000   -0.0001    0.0000    0.0000   -0.0057
       32 FE2    3d2-       0.0000    0.0000   -0.0000    0.0000    0.0000    0.0000    0.0000   -0.0000    0.0000    0.0000
       33 FE2    4d2-      -0.0000   -0.0000    0.0000   -0.0000   -0.0000   -0.0000   -0.0000    0.0000   -0.0000   -0.0000
       34 FE2    3d1-      -0.0000   -0.0000    0.0000    0.0000    0.0000    0.0000   -0.0000    0.0006    0.0003    0.0000
       35 FE2    4d1-       0.0000    0.0000   -0.0000   -0.0000   -0.0000    0.0000    0.0000    0.0001    0.0000    0.0000
       36 FE2    3d0       -0.0000   -0.0005   -0.0000   -0.0000    0.0000    0.0000   -0.0124   -0.0000   -0.0000    0.0007
       37 FE2    4d0        0.0000    0.0004    0.0000    0.0000   -0.0000    0.0000    0.0041   -0.0000   -0.0000    0.0002
       38 FE2    3d1+       0.0000    0.0000   -0.0000    0.0000   -0.0000   -0.0000    0.0000   -0.0003    0.0006   -0.0000
       39 FE2    4d1+      -0.0000   -0.0000    0.0000   -0.0000    0.0000   -0.0000   -0.0000   -0.0000    0.0001   -0.0000
       40 FE2    3d2+       0.0000    0.0000   -0.0000   -0.0000    0.0000   -0.0000    0.0000   -0.0000   -0.0000    0.0000
       41 FE2    4d2+      -0.0000   -0.0000    0.0000    0.0000   -0.0000   -0.0000   -0.0000    0.0000    0.0000   -0.0000
       42 FE2    4f3-      -0.0000   -0.0000    0.0000    0.0000    0.0000   -0.0000   -0.0000    0.0000    0.0000    0.0000
       43 FE2    4f2-       0.0000    0.0000    0.0000   -0.0000    0.0000   -0.0000    0.0000    0.0000   -0.0000    0.0000
       44 FE2    4f1-      -0.0000   -0.0000   -0.0002   -0.0001   -0.0000    0.0000   -0.0000   -0.0075   -0.0030   -0.0000
       45 FE2    4f0        0.0000   -0.0000    0.0000    0.0000   -0.0001    0.0000   -0.0000    0.0000    0.0000   -0.0018
       46 FE2    4f1+       0.0000    0.0000    0.0001   -0.0002    0.0000   -0.0000    0.0000    0.0030   -0.0075    0.0000
       47 FE2    4f2+       0.0000    0.0000    0.0000    0.0000    0.0000   -0.0000    0.0000    0.0000    0.0000    0.0000
       48 FE2    4f3+      -0.0000   -0.0000   -0.0000    0.0000    0.0000   -0.0000   -0.0000   -0.0000    0.0000    0.0000
 
          Orbital           11        12        13        14        15        16        17        18        19        20    
          Energy           -2.0012   -1.3866   -1.3866   -0.8687   -0.8687   -0.8297   -0.7947   -0.7947   -0.5459   -0.3210
          Occ. No.          1.0000    1.0000    1.0000    1.0000    1.0000    1.0000    1.0000    1.0000    0.0000    0.0000
 
        1 O1     1s        -0.0004    0.0000    0.0000    0.0000    0.0000   -0.0000    0.0000    0.0000   -0.0000   -0.0005
        2 O1     2s         0.9962    0.0000    0.0000    0.0000    0.0000   -0.0004    0.0000    0.0000    0.0051   -0.0056
        3 O1     3s        -0.0712   -0.0000   -0.0000    0.0000    0.0000   -0.0002    0.0000    0.0000   -0.0049    0.0033
        4 O1     2px       -0.0000   -0.2980    0.9438    0.0000   -0.0000   -0.0000    0.0000   -0.0001    0.0000    0.0000
        5 O1     3px        0.0000    0.0430   -0.1363    0.0000   -0.0000    0.0000    0.0001   -0.0003    0.0000    0.0000
        6 O1     2py        0.0000    0.9438    0.2980   -0.0000   -0.0000    0.0000   -0.0001   -0.0000   -0.0001   -0.0000
        7 O1     3py       -0.0000   -0.1363   -0.0430   -0.0000   -0.0000   -0.0000   -0.0003   -0.0001   -0.0000   -0.0000
        8 O1     2pz       -0.0057    0.0001    0.0000   -0.0000   -0.0000    0.0005   -0.0000   -0.0000    0.9945    0.0184
        9 O1     3pz       -0.0002   -0.0000   -0.0000   -0.0000   -0.0000    0.0012   -0.0000   -0.0000    0.1057   -0.0055
       10 O1     3d2-       0.0000   -0.0000    0.0000    0.0000   -0.0000   -0.0000    0.0000   -0.0000    0.0000   -0.0000
       11 O1     3d1-       0.0000   -0.0016   -0.0005    0.0000    0.0000   -0.0000   -0.0000   -0.0000    0.0000   -0.0000
       12 O1     3d0       -0.0509   -0.0000   -0.0000    0.0000    0.0000   -0.0000   -0.0000   -0.0000   -0.0027    0.0006
       13 O1     3d1+      -0.0000    0.0005   -0.0016   -0.0000    0.0000    0.0000    0.0000   -0.0000   -0.0000    0.0000
       14 O1     3d2+       0.0000   -0.0000   -0.0000    0.0000    0.0000   -0.0000    0.0000    0.0000    0.0000   -0.0000
       15 FE2    1s        -0.0000   -0.0000   -0.0000   -0.0000   -0.0000    0.0000   -0.0000   -0.0000    0.0000    0.0000
       16 FE2    2s        -0.0000   -0.0000   -0.0000    0.0000    0.0000    0.0004   -0.0000   -0.0000    0.0001    0.0001
       17 FE2    3s        -0.0000   -0.0000   -0.0000    0.0000    0.0000    0.0124   -0.0000   -0.0000    0.0004   -0.0058
       18 FE2    4s        -0.0001   -0.0000   -0.0000   -0.0000   -0.0000   -0.0129    0.0000    0.0000    0.0012    0.9925
       19 FE2    5s        -0.0003   -0.0000   -0.0000    0.0000    0.0000    0.0074   -0.0000   -0.0000    0.0025    0.0709
       20 FE2    2px        0.0000   -0.0000    0.0000    0.0000   -0.0000    0.0000    0.0000   -0.0000   -0.0000    0.0000
       21 FE2    3px       -0.0000   -0.0000    0.0000    0.0000   -0.0000    0.0000    0.0002   -0.0007   -0.0000    0.0000
       22 FE2    4px       -0.0000   -0.0001    0.0004   -0.0000    0.0000   -0.0000   -0.0028    0.0086   -0.0000    0.0000
       23 FE2    5px       -0.0000   -0.0001    0.0002   -0.0000    0.0000   -0.0000   -0.0001    0.0004   -0.0000    0.0000
       24 FE2    2py       -0.0000    0.0000    0.0000   -0.0000   -0.0000   -0.0000   -0.0000   -0.0000    0.0000   -0.0000
       25 FE2    3py        0.0000    0.0000    0.0000   -0.0000   -0.0000   -0.0000   -0.0007   -0.0002    0.0000   -0.0000
       26 FE2    4py        0.0000    0.0004    0.0001    0.0000    0.0000    0.0000    0.0086    0.0028    0.0000   -0.0000
       27 FE2    5py        0.0000    0.0002    0.0001    0.0000    0.0000    0.0000    0.0004    0.0001    0.0000   -0.0000
       28 FE2    2pz       -0.0000   -0.0000   -0.0000    0.0000    0.0000   -0.0000    0.0000    0.0000    0.0000    0.0000
       29 FE2    3pz       -0.0000   -0.0000   -0.0000    0.0000    0.0000   -0.0008    0.0000    0.0000    0.0003   -0.0011
       30 FE2    4pz       -0.0001   -0.0000   -0.0000   -0.0000   -0.0000    0.0104   -0.0000   -0.0000    0.0012    0.0934
       31 FE2    5pz       -0.0001   -0.0000   -0.0000   -0.0000   -0.0000    0.0004   -0.0000   -0.0000    0.0004    0.0135
       32 FE2    3d2-       0.0000    0.0000   -0.0000    0.7695   -0.6387   -0.0000   -0.0000    0.0001    0.0000   -0.0000
       33 FE2    4d2-       0.0000    0.0000   -0.0000    0.0024   -0.0020   -0.0000   -0.0000    0.0000    0.0000    0.0000
       34 FE2    3d1-       0.0000    0.0001    0.0000    0.0001    0.0001    0.0002    0.9523    0.3038   -0.0000    0.0000
       35 FE2    4d1-       0.0000    0.0002    0.0001    0.0000    0.0000    0.0000    0.0258    0.0082    0.0000   -0.0000
       36 FE2    3d0       -0.0000   -0.0000   -0.0000   -0.0000   -0.0000    0.9996   -0.0002   -0.0000    0.0015    0.0116
       37 FE2    4d0       -0.0000   -0.0000   -0.0000   -0.0000   -0.0000    0.0155   -0.0000   -0.0000    0.0003   -0.0069
       38 FE2    3d1+      -0.0000   -0.0000    0.0001   -0.0000    0.0001   -0.0000   -0.3038    0.9523    0.0000   -0.0000
       39 FE2    4d1+      -0.0000   -0.0001    0.0002   -0.0000    0.0000   -0.0000   -0.0082    0.0258   -0.0000    0.0000
       40 FE2    3d2+       0.0000    0.0000    0.0000    0.6387    0.7695   -0.0000   -0.0001   -0.0001    0.0000   -0.0000
       41 FE2    4d2+       0.0000    0.0000    0.0000    0.0020    0.0024   -0.0000   -0.0000   -0.0000    0.0000    0.0000
       42 FE2    4f3-       0.0000   -0.0000   -0.0000    0.0000    0.0000    0.0000   -0.0000   -0.0000    0.0000    0.0000
       43 FE2    4f2-      -0.0000   -0.0000    0.0000    0.0005   -0.0004   -0.0000   -0.0000    0.0000   -0.0000   -0.0000
       44 FE2    4f1-       0.0000    0.0000    0.0000    0.0000    0.0000    0.0000    0.0007    0.0002   -0.0000    0.0000
       45 FE2    4f0        0.0000   -0.0000   -0.0000   -0.0000   -0.0000    0.0008   -0.0000   -0.0000   -0.0000    0.0001
       46 FE2    4f1+      -0.0000   -0.0000    0.0000   -0.0000    0.0000   -0.0000   -0.0002    0.0007    0.0000   -0.0000
       47 FE2    4f2+      -0.0000   -0.0000   -0.0000    0.0004    0.0005   -0.0000   -0.0000   -0.0000   -0.0000   -0.0000
       48 FE2    4f3+       0.0000    0.0000   -0.0000   -0.0000    0.0000    0.0000    0.0000   -0.0000    0.0000    0.0000
 
          Orbital           21        22        23        24    
          Energy           -0.1734   -0.1734   -0.1664   -0.0856
          Occ. No.          0.0000    0.0000    0.0000    0.0000
 
        1 O1     1s         0.0000   -0.0000   -0.0007   -0.0015
        2 O1     2s         0.0000   -0.0000   -0.0070   -0.0144
        3 O1     3s        -0.0000    0.0000    0.0128    0.0308
        4 O1     2px       -0.0002    0.0009    0.0000    0.0000
        5 O1     3px       -0.0032    0.0117    0.0000    0.0000
        6 O1     2py        0.0009    0.0002   -0.0000   -0.0000
        7 O1     3py        0.0117    0.0032   -0.0000   -0.0000
        8 O1     2pz       -0.0000    0.0000    0.0260    0.0391
        9 O1     3pz        0.0000   -0.0000   -0.0390   -0.0644
       10 O1     3d2-       0.0000   -0.0000   -0.0000   -0.0000
       11 O1     3d1-      -0.0003   -0.0001   -0.0000   -0.0000
       12 O1     3d0       -0.0000    0.0000    0.0015    0.0027
       13 O1     3d1+       0.0001   -0.0003    0.0000    0.0000
       14 O1     3d2+       0.0000    0.0000   -0.0000   -0.0000
       15 FE2    1s         0.0000   -0.0000   -0.0000   -0.0000
       16 FE2    2s         0.0000   -0.0000   -0.0000   -0.0002
       17 FE2    3s        -0.0000    0.0000    0.0006    0.0044
       18 FE2    4s         0.0000   -0.0000   -0.1026   -0.0663
       19 FE2    5s        -0.0000    0.0000    0.0781    0.9831
       20 FE2    2px       -0.0000    0.0001   -0.0000   -0.0000
       21 FE2    3px        0.0007   -0.0027    0.0000   -0.0000
       22 FE2    4px       -0.2644    0.9573   -0.0000    0.0000
       23 FE2    5px       -0.0304    0.1102   -0.0000    0.0000
       24 FE2    2py        0.0001    0.0000    0.0000    0.0000
       25 FE2    3py       -0.0027   -0.0007   -0.0000    0.0000
       26 FE2    4py        0.9573    0.2644    0.0001   -0.0000
       27 FE2    5py        0.1102    0.0304    0.0000   -0.0000
       28 FE2    2pz       -0.0000    0.0000    0.0001   -0.0000
       29 FE2    3pz        0.0000   -0.0000   -0.0049    0.0009
       30 FE2    4pz       -0.0001    0.0000    0.9801   -0.0975
       31 FE2    5pz       -0.0000    0.0000    0.1197   -0.0063
       32 FE2    3d2-       0.0000   -0.0000    0.0000    0.0000
       33 FE2    4d2-       0.0000   -0.0000   -0.0000   -0.0000
       34 FE2    3d1-      -0.0090   -0.0025   -0.0000   -0.0000
       35 FE2    4d1-       0.0082    0.0023    0.0000    0.0000
       36 FE2    3d0        0.0000   -0.0000   -0.0125   -0.0077
       37 FE2    4d0       -0.0000    0.0000    0.0148    0.0153
       38 FE2    3d1+       0.0025   -0.0090    0.0000    0.0000
       39 FE2    4d1+      -0.0023    0.0082   -0.0000   -0.0000
       40 FE2    3d2+       0.0000    0.0000    0.0000    0.0000
       41 FE2    4d2+       0.0000    0.0000   -0.0000   -0.0000
       42 FE2    4f3-      -0.0000   -0.0000   -0.0000   -0.0000
       43 FE2    4f2-       0.0000    0.0000    0.0000    0.0000
       44 FE2    4f1-      -0.0000   -0.0000   -0.0000   -0.0000
       45 FE2    4f0        0.0000   -0.0000   -0.0003    0.0000
       46 FE2    4f1+       0.0000   -0.0000    0.0000    0.0000
       47 FE2    4f2+      -0.0000   -0.0000    0.0000    0.0000
       48 FE2    4f3+       0.0000   -0.0000   -0.0000   -0.0000
--
 
 
  Input file to MOLDEN was generated!
 
 
++    Static properties:
      ------------------
 
 
      LoProp Charges per center
 

                   O1       FE2   
      Nuclear      8.0000  26.0000
      Electronic  -6.9999 -25.0001
 
      Total        1.0001   0.9999
--
 
 
      All orbitals with orbital energies smaller than  E(LUMO)+0.5 are printed
 
++    Molecular orbitals:
      -------------------
 
      Title: UHF orbitals (beta)

      Molecular orbitals for symmetry species 1: a  
 
          Orbital            1         2         3         4         5         6         7         8         9        10    
          Energy         -263.8655  -32.5585  -27.6324  -27.6324  -27.6319  -21.4426   -4.3058   -2.8392   -2.7898   -2.7898
          Occ. No.          1.0000    1.0000    1.0000    1.0000    1.0000    1.0000    1.0000    1.0000    1.0000    1.0000
 
        1 O1     1s         0.0000    0.0000   -0.0000   -0.0000    0.0000    1.0000    0.0000    0.0000   -0.0000    0.0000
        2 O1     2s         0.0000    0.0000   -0.0000   -0.0000    0.0000   -0.0019    0.0001    0.0001   -0.0000    0.0000
        3 O1     3s        -0.0000    0.0000   -0.0000   -0.0000    0.0000    0.0002    0.0002    0.0001   -0.0000    0.0000
        4 O1     2px        0.0000    0.0000   -0.0000    0.0000   -0.0000    0.0000    0.0000   -0.0000    0.0000    0.0000
        5 O1     3px        0.0000    0.0000   -0.0000    0.0000   -0.0000   -0.0000    0.0000   -0.0000    0.0000    0.0001
        6 O1     2py       -0.0000   -0.0000    0.0000    0.0000    0.0000   -0.0000   -0.0000    0.0000    0.0000   -0.0000
        7 O1     3py       -0.0000   -0.0000    0.0000    0.0000    0.0000    0.0000   -0.0000    0.0000    0.0001   -0.0000
        8 O1     2pz        0.0000   -0.0000    0.0000    0.0000   -0.0000   -0.0000   -0.0001   -0.0001    0.0000   -0.0000
        9 O1     3pz        0.0000   -0.0000    0.0000    0.0000   -0.0000   -0.0000   -0.0003   -0.0001    0.0000   -0.0000
       10 O1     3d2-       0.0000   -0.0000    0.0000   -0.0000   -0.0000   -0.0000   -0.0000   -0.0000    0.0000    0.0000
       11 O1     3d1-       0.0000    0.0000   -0.0000   -0.0000   -0.0000   -0.0000    0.0000   -0.0000   -0.0000    0.0000
       12 O1     3d0       -0.0000    0.0000   -0.0000   -0.0000    0.0000    0.0015    0.0000    0.0000   -0.0000    0.0000
       13 O1     3d1+      -0.0000   -0.0000    0.0000   -0.0000    0.0000    0.0000   -0.0000    0.0000   -0.0000   -0.0000
       14 O1     3d2+      -0.0000   -0.0000    0.0000    0.0000    0.0000   -0.0000    0.0000   -0.0000   -0.0000    0.0000
       15 FE2    1s         1.0000    0.0000    0.0000    0.0000   -0.0000   -0.0000   -0.0000    0.0000   -0.0000    0.0000
       16 FE2    2s        -0.0000    1.0000    0.0000    0.0000   -0.0003   -0.0000    0.0002   -0.0000    0.0000   -0.0000
       17 FE2    3s         0.0000   -0.0002   -0.0000   -0.0000    0.0000   -0.0000    1.0000   -0.0015    0.0000   -0.0000
       18 FE2    4s        -0.0000    0.0001   -0.0000   -0.0000    0.0000   -0.0000    0.0076    0.0007   -0.0000    0.0000
       19 FE2    5s         0.0000   -0.0002    0.0000    0.0000   -0.0000   -0.0000   -0.0057   -0.0004    0.0000   -0.0000
       20 FE2    2px       -0.0000   -0.0000   -0.2868    0.9580   -0.0000    0.0000   -0.0000   -0.0000    0.0008    0.0017
       21 FE2    3px        0.0000    0.0000    0.0005   -0.0018    0.0000   -0.0000   -0.0000   -0.0000    0.4046    0.9143
       22 FE2    4px       -0.0000   -0.0000   -0.0001    0.0003   -0.0000    0.0000   -0.0000   -0.0000    0.0033    0.0074
       23 FE2    5px        0.0000   -0.0000    0.0002   -0.0007    0.0000    0.0000   -0.0000    0.0000   -0.0036   -0.0081
       24 FE2    2py        0.0000    0.0000    0.9580    0.2868    0.0002   -0.0000    0.0000    0.0000    0.0017   -0.0008
       25 FE2    3py       -0.0000   -0.0000   -0.0018   -0.0005   -0.0000    0.0000    0.0000    0.0001    0.9143   -0.4046
       26 FE2    4py        0.0000    0.0000    0.0003    0.0001    0.0000   -0.0000    0.0000    0.0000    0.0074   -0.0033
       27 FE2    5py       -0.0000    0.0000   -0.0007   -0.0002   -0.0000   -0.0000    0.0000   -0.0000   -0.0081    0.0036
       28 FE2    2pz        0.0000    0.0003   -0.0002   -0.0000    1.0000   -0.0000   -0.0000    0.0010   -0.0000    0.0000
       29 FE2    3pz       -0.0000    0.0000    0.0000    0.0000   -0.0010   -0.0000    0.0015    0.9997   -0.0001    0.0001
       30 FE2    4pz        0.0000   -0.0000   -0.0000   -0.0000    0.0003   -0.0000    0.0001    0.0107   -0.0000    0.0000
       31 FE2    5pz       -0.0000    0.0000    0.0000    0.0000   -0.0007   -0.0000   -0.0001   -0.0099    0.0000   -0.0000
       32 FE2    3d2-      -0.0000   -0.0000   -0.0000    0.0000   -0.0000    0.0000   -0.0000   -0.0000   -0.0000   -0.0000
       33 FE2    4d2-      -0.0000   -0.0000    0.0000   -0.0000    0.0000    0.0000    0.0000    0.0000    0.0000    0.0000
       34 FE2    3d1-       0.0000    0.0000    0.0000    0.0000    0.0000   -0.0000    0.0000    0.0000    0.0004   -0.0002
       35 FE2    4d1-       0.0000    0.0000   -0.0000   -0.0000   -0.0000   -0.0000   -0.0000   -0.0000    0.0003   -0.0001
       36 FE2    3d0        0.0000    0.0000   -0.0000   -0.0000    0.0000   -0.0000    0.0011    0.0012   -0.0000    0.0000
       37 FE2    4d0        0.0000    0.0000    0.0000    0.0000   -0.0000   -0.0000    0.0004   -0.0002   -0.0000    0.0000
       38 FE2    3d1+      -0.0000   -0.0000   -0.0000    0.0000   -0.0000    0.0000   -0.0000   -0.0000    0.0002    0.0004
       39 FE2    4d1+      -0.0000   -0.0000    0.0000   -0.0000    0.0000    0.0000    0.0000    0.0000    0.0001    0.0003
       40 FE2    3d2+      -0.0000   -0.0000   -0.0000   -0.0000   -0.0000    0.0000   -0.0000   -0.0000    0.0000   -0.0000
       41 FE2    4d2+      -0.0000   -0.0000    0.0000    0.0000    0.0000    0.0000    0.0000    0.0000   -0.0000    0.0000
       42 FE2    4f3-      -0.0000    0.0000   -0.0000   -0.0000   -0.0000   -0.0000    0.0000   -0.0000   -0.0000   -0.0000
       43 FE2    4f2-       0.0000   -0.0000   -0.0000    0.0000    0.0000    0.0000   -0.0000    0.0000    0.0000    0.0000
       44 FE2    4f1-      -0.0000    0.0000    0.0007    0.0002   -0.0000   -0.0000    0.0000   -0.0000    0.0118   -0.0052
       45 FE2    4f0       -0.0000    0.0000   -0.0000   -0.0000   -0.0011   -0.0000    0.0000   -0.0211   -0.0000    0.0000
       46 FE2    4f1+       0.0000   -0.0000   -0.0002    0.0007    0.0000    0.0000   -0.0000    0.0000    0.0052    0.0118
       47 FE2    4f2+       0.0000   -0.0000   -0.0000   -0.0000    0.0000    0.0000   -0.0000    0.0000   -0.0000    0.0000
       48 FE2    4f3+      -0.0000    0.0000    0.0000   -0.0000   -0.0000   -0.0000    0.0000   -0.0000    0.0000   -0.0000
 
          Orbital           11        12        13        14        15        16        17        18        19        20    
          Energy           -1.8213   -1.3419   -0.6927   -0.6927   -0.5119   -0.5119   -0.3040   -0.1554   -0.1524   -0.1524
          Occ. No.          1.0000    1.0000    1.0000    1.0000    0.0000    0.0000    0.0000    0.0000    0.0000    0.0000
 
        1 O1     1s         0.0018    0.0000    0.0000    0.0000    0.0000    0.0000   -0.0007   -0.0007    0.0000   -0.0000
        2 O1     2s         0.9974    0.0039    0.0000    0.0000    0.0000    0.0000   -0.0080   -0.0081    0.0000   -0.0000
        3 O1     3s        -0.0468   -0.0030    0.0000    0.0000   -0.0000   -0.0000    0.0039    0.0122   -0.0000    0.0000
        4 O1     2px        0.0000    0.0000    0.0002   -0.0000   -0.2719    0.9532   -0.0000   -0.0000   -0.0050    0.0014
        5 O1     3px       -0.0000   -0.0000   -0.0001    0.0000   -0.0362    0.1270   -0.0000   -0.0000    0.0075   -0.0021
        6 O1     2py       -0.0000   -0.0001    0.0000    0.0002    0.9532    0.2719    0.0000    0.0000   -0.0014   -0.0050
        7 O1     3py        0.0000    0.0000   -0.0000   -0.0001    0.1270    0.0362    0.0000    0.0000    0.0021    0.0075
        8 O1     2pz       -0.0042    0.9917   -0.0000   -0.0000    0.0001    0.0000    0.0045   -0.0029    0.0000   -0.0000
        9 O1     3pz       -0.0016   -0.1281   -0.0000   -0.0000    0.0000    0.0000   -0.0149   -0.0717    0.0000   -0.0000
       10 O1     3d2-      -0.0000   -0.0000    0.0000   -0.0000    0.0000   -0.0000    0.0000    0.0000    0.0000   -0.0000
       11 O1     3d1-      -0.0000    0.0000   -0.0000   -0.0000   -0.0014   -0.0004    0.0000    0.0000   -0.0001   -0.0003
       12 O1     3d0        0.0554   -0.0011   -0.0000   -0.0000   -0.0000   -0.0000    0.0004    0.0009   -0.0000    0.0000
       13 O1     3d1+       0.0000   -0.0000   -0.0000    0.0000    0.0004   -0.0014   -0.0000   -0.0000   -0.0003    0.0001
       14 O1     3d2+      -0.0000   -0.0000   -0.0000   -0.0000    0.0000    0.0000    0.0000    0.0000   -0.0000   -0.0000
       15 FE2    1s        -0.0000   -0.0000   -0.0000   -0.0000    0.0000    0.0000   -0.0000   -0.0000    0.0000   -0.0000
       16 FE2    2s        -0.0000   -0.0000    0.0000    0.0000    0.0000    0.0000   -0.0001    0.0000    0.0000   -0.0000
       17 FE2    3s        -0.0000   -0.0001   -0.0000   -0.0000    0.0000    0.0000   -0.0067    0.0009   -0.0000    0.0000
       18 FE2    4s        -0.0003   -0.0012   -0.0000   -0.0000   -0.0000   -0.0000    0.9827   -0.1188    0.0000   -0.0000
       19 FE2    5s        -0.0008   -0.0013    0.0000    0.0000    0.0000    0.0000    0.1460    0.0550   -0.0000    0.0000
       20 FE2    2px       -0.0000    0.0000   -0.0000    0.0000    0.0000   -0.0000   -0.0000   -0.0000   -0.0002    0.0001
       21 FE2    3px       -0.0000    0.0000   -0.0006    0.0002    0.0000   -0.0000    0.0000   -0.0000   -0.0066    0.0018
       22 FE2    4px        0.0000    0.0000    0.0142   -0.0041    0.0001   -0.0003    0.0000    0.0000    0.9550   -0.2656
       23 FE2    5px        0.0000    0.0000    0.0008   -0.0002    0.0000   -0.0001    0.0000    0.0000    0.1249   -0.0347
       24 FE2    2py        0.0000   -0.0000   -0.0000   -0.0000   -0.0000   -0.0000    0.0000    0.0000   -0.0001   -0.0002
       25 FE2    3py        0.0000   -0.0000   -0.0002   -0.0006   -0.0000   -0.0000   -0.0000    0.0000   -0.0018   -0.0066
       26 FE2    4py       -0.0000   -0.0000    0.0041    0.0142   -0.0003   -0.0001   -0.0000   -0.0001    0.2656    0.9550
       27 FE2    5py       -0.0000   -0.0000    0.0002    0.0008   -0.0001   -0.0000   -0.0000   -0.0000    0.0347    0.1249
       28 FE2    2pz       -0.0000   -0.0000    0.0000    0.0000    0.0000    0.0000   -0.0000   -0.0002    0.0000   -0.0000
       29 FE2    3pz       -0.0000   -0.0001    0.0000    0.0000    0.0000    0.0000   -0.0016   -0.0092    0.0000   -0.0000
       30 FE2    4pz       -0.0004   -0.0013   -0.0000   -0.0000    0.0000    0.0000    0.1014    0.9740   -0.0000    0.0001
       31 FE2    5pz       -0.0003   -0.0005   -0.0000   -0.0000    0.0000    0.0000    0.0157    0.1285   -0.0000    0.0000
       32 FE2    3d2-       0.0000   -0.0000    0.0001   -0.0000    0.0000   -0.0000   -0.0000   -0.0000   -0.0000    0.0000
       33 FE2    4d2-      -0.0000   -0.0000    0.0000   -0.0000    0.0000   -0.0000   -0.0000   -0.0000   -0.0000    0.0000
       34 FE2    3d1-      -0.0000    0.0000    0.2758    0.9583   -0.0008   -0.0002    0.0000    0.0000   -0.0041   -0.0148
       35 FE2    4d1-      -0.0000   -0.0000    0.0201    0.0699   -0.0001   -0.0000    0.0000    0.0000    0.0020    0.0071
       36 FE2    3d0       -0.0000   -0.0002   -0.0000   -0.0002    0.0000    0.0000    0.0041    0.0300   -0.0000    0.0000
       37 FE2    4d0       -0.0001   -0.0004   -0.0000   -0.0000    0.0000    0.0000    0.0007    0.0203   -0.0000    0.0000
       38 FE2    3d1+       0.0000   -0.0000    0.9583   -0.2758    0.0002   -0.0008   -0.0000   -0.0000   -0.0148    0.0041
       39 FE2    4d1+       0.0000    0.0000    0.0699   -0.0201    0.0000   -0.0001   -0.0000   -0.0000    0.0071   -0.0020
       40 FE2    3d2+       0.0000   -0.0000   -0.0000   -0.0001    0.0000    0.0000   -0.0000   -0.0000    0.0000    0.0000
       41 FE2    4d2+      -0.0000   -0.0000   -0.0000   -0.0000    0.0000    0.0000   -0.0000   -0.0000    0.0000    0.0000
       42 FE2    4f3-       0.0000    0.0000   -0.0000   -0.0000    0.0000    0.0000   -0.0000   -0.0000   -0.0000   -0.0000
       43 FE2    4f2-      -0.0000   -0.0000    0.0000   -0.0000    0.0000   -0.0000    0.0000    0.0000    0.0000   -0.0000
       44 FE2    4f1-       0.0000   -0.0000    0.0002    0.0008    0.0000    0.0000   -0.0000   -0.0000    0.0004    0.0013
       45 FE2    4f0       -0.0000   -0.0000   -0.0000   -0.0000   -0.0000   -0.0000   -0.0002   -0.0015    0.0000   -0.0000
       46 FE2    4f1+      -0.0000    0.0000    0.0008   -0.0002   -0.0000    0.0000    0.0000    0.0000    0.0013   -0.0004
       47 FE2    4f2+      -0.0000   -0.0000   -0.0000   -0.0000    0.0000    0.0000    0.0000    0.0000   -0.0000   -0.0000
       48 FE2    4f3+       0.0000    0.0000   -0.0000    0.0000   -0.0000    0.0000   -0.0000   -0.0000   -0.0000    0.0000
 
          Orbital           21        22        23    
          Energy           -0.0673   -0.0125   -0.0125
          Occ. No.          0.0000    0.0000    0.0000
 
        1 O1     1s        -0.0015   -0.0000   -0.0000
        2 O1     2s        -0.0165   -0.0000   -0.0000
        3 O1     3s         0.0294   -0.0000   -0.0000
        4 O1     2px       -0.0000   -0.0000    0.0000
        5 O1     3px       -0.0000    0.0000   -0.0000
        6 O1     2py        0.0000   -0.0000   -0.0000
        7 O1     3py        0.0000    0.0000    0.0000
        8 O1     2pz       -0.0071    0.0000    0.0000
        9 O1     3pz       -0.1521    0.0000    0.0000
       10 O1     3d2-       0.0000   -0.0000    0.0000
       11 O1     3d1-       0.0000   -0.0000   -0.0000
       12 O1     3d0        0.0011   -0.0000   -0.0000
       13 O1     3d1+      -0.0000   -0.0000    0.0000
       14 O1     3d2+       0.0000    0.0000    0.0000
       15 FE2    1s        -0.0000    0.0000    0.0000
       16 FE2    2s         0.0001    0.0000    0.0000
       17 FE2    3s         0.0063    0.0000    0.0000
       18 FE2    4s        -0.1473    0.0000    0.0000
       19 FE2    5s         0.9562    0.0000    0.0000
       20 FE2    2px        0.0000   -0.0000    0.0000
       21 FE2    3px       -0.0000   -0.0000    0.0000
       22 FE2    4px        0.0000   -0.0000    0.0000
       23 FE2    5px        0.0000   -0.0000    0.0000
       24 FE2    2py       -0.0000   -0.0000   -0.0000
       25 FE2    3py        0.0000   -0.0000   -0.0000
       26 FE2    4py       -0.0000   -0.0000   -0.0000
       27 FE2    5py       -0.0000   -0.0000   -0.0000
       28 FE2    2pz        0.0000    0.0000    0.0000
       29 FE2    3pz        0.0013    0.0000    0.0000
       30 FE2    4pz       -0.1023    0.0000    0.0000
       31 FE2    5pz       -0.0075    0.0000    0.0000
       32 FE2    3d2-      -0.0000   -0.2437    0.9220
       33 FE2    4d2-      -0.0000   -0.0769    0.2908
       34 FE2    3d1-       0.0000    0.0001    0.0000
       35 FE2    4d1-       0.0000    0.0000    0.0000
       36 FE2    3d0        0.0172   -0.0000   -0.0000
       37 FE2    4d0        0.0130   -0.0000   -0.0000
       38 FE2    3d1+      -0.0000    0.0000   -0.0001
       39 FE2    4d1+      -0.0000    0.0000   -0.0000
       40 FE2    3d2+      -0.0000    0.9220    0.2437
       41 FE2    4d2+      -0.0000    0.2908    0.0769
       42 FE2    4f3-       0.0000    0.0000   -0.0000
       43 FE2    4f2-      -0.0000   -0.0002    0.0007
       44 FE2    4f1-       0.0000    0.0000    0.0000
       45 FE2    4f0        0.0003   -0.0000   -0.0000
       46 FE2    4f1+      -0.0000    0.0000   -0.0000
       47 FE2    4f2+      -0.0000    0.0007    0.0002
       48 FE2    4f3+       0.0000   -0.0000   -0.0000
--
 
 
++    Molecular charges:
      ------------------
 
      Mulliken charges per centre and basis function type
      ---------------------------------------------------
 
                            O1                      FE2   
                     alpha        beta       alpha        beta
      1s           1.0000      1.0000      1.0000      1.0000
      2s           0.9923      0.9948      1.0000      1.0000
      2px          0.9796      0.0000      1.0000      1.0000
      2pz          0.0000      0.9836      1.0000      1.0000
      2py          0.9796      0.0000      1.0000      1.0000
      3s           0.0051      0.0022      0.9999      0.9999
      3px          0.0204     -0.0000      0.9999      0.9997
      3pz         -0.0000      0.0164      0.9999      0.9993
      3py          0.0204     -0.0000      0.9999      0.9997
      4s           0.0000      0.0000      0.0002      0.0001
      3d2+         0.0000      0.0000      1.0000      0.0000
      3d1+         0.0000      0.0000      0.9992      0.9945
      3d0          0.0026      0.0031      0.9994      0.0000
      3d1-         0.0000      0.0000      0.9992      0.9945
      3d2-         0.0000      0.0000      1.0000      0.0000
      4px          0.0000      0.0000      0.0001      0.0003
      4pz          0.0000      0.0000      0.0001      0.0001
      4py          0.0000      0.0000      0.0001      0.0003
      5s           0.0000      0.0000      0.0001      0.0000
      4d2+         0.0000      0.0000      0.0000      0.0000
      4d1+         0.0000      0.0000      0.0007      0.0053
      4d0          0.0000      0.0000      0.0003      0.0000
      4d1-         0.0000      0.0000      0.0007      0.0053
      4d2-         0.0000      0.0000      0.0000      0.0000
      5px          0.0000      0.0000      0.0000      0.0001
      5pz          0.0000      0.0000      0.0000      0.0001
      5py          0.0000      0.0000      0.0000      0.0001
      4f3+         0.0000      0.0000      0.0000      0.0000
      4f2+         0.0000      0.0000      0.0000      0.0000
      4f1+         0.0000      0.0000      0.0001      0.0002
      4f0          0.0000      0.0000      0.0000      0.0004
      4f1-         0.0000      0.0000      0.0001      0.0002
      4f2-         0.0000      0.0000      0.0000      0.0000
      4f3-         0.0000      0.0000      0.0000      0.0000
      Total        4.0000      3.0000     14.0000     11.0000
      Total              7.0000                 25.0000
 
      Charge            1.0000                  1.0000
 
      Total electronic charge=   32.000000
 
      Total            charge=    2.000000
--
 
 
  Input file to MOLDEN was generated!
 
 
++    Static properties:
      ------------------
 
 
      LoProp Charges per center
 

                   O1       FE2   
      Nuclear      8.0000  26.0000
      Electronic  -6.9999 -25.0001
 
      Total        1.0001   0.9999
--
 
 
++    Natural Bond Order analysis
      ---------------------------
      Based on LoProp computed density
      -------------------------------------------------------------------------------------
      Atom A       Atom B       Bond Order
      -------------------------------------------------------------------------------------
      NBO located     19.999 core electrons.
      NBO located      5.992 lone pair electrons.
      NBO located      1.000 non-bonded electrons on atom O1        
      NBO located      1.000 non-bonded electrons on atom O1        
      NBO located      1.000 non-bonded electrons on atom O1        
      NBO located      1.000 non-bonded electrons on atom FE2       
      NBO located      1.000 non-bonded electrons on atom FE2       
      NBO located      1.000 non-bonded electrons on atom FE2       
      The remaining    0.009 electrons are to be considered as diffuse
--
 
 
++    Molecular orbitals:
      -------------------
 
      Title: Natural orbitals

      Molecular orbitals for symmetry species 1: a  
 
          Orbital            1         2         3         4         5         6         7         8         9        10    
          Energy         -263.8662  -32.2721  -21.4613  -27.5497  -27.5770  -27.5769   -4.7606   -3.0520   -3.0628   -3.0629
          Occ. No.          2.0000    2.0000    2.0000    2.0000    2.0000    2.0000    2.0000    1.9998    1.9998    1.9998
 
        1 O1     1s         0.0000   -0.0044   -0.9985    0.0451   -0.0000   -0.0000    0.0044    0.0001   -0.0000   -0.0000
        2 O1     2s        -0.0000    0.0001    0.0301   -0.0014    0.0000    0.0000    0.0001    0.0002   -0.0000   -0.0000
        3 O1     3s        -0.0000   -0.0000   -0.0013    0.0001   -0.0000   -0.0000    0.0001    0.0001   -0.0000   -0.0000
        4 O1     2px        0.0000   -0.0000    0.0000   -0.0000    0.0000   -0.0000   -0.0000   -0.0000   -0.0000    0.0000
        5 O1     3px        0.0000    0.0000   -0.0000    0.0000    0.0000   -0.0000    0.0000   -0.0000   -0.0000    0.0001
        6 O1     2py       -0.0000    0.0000   -0.0000    0.0000   -0.0000   -0.0000    0.0000    0.0000    0.0000    0.0000
        7 O1     3py       -0.0000   -0.0000    0.0000   -0.0000   -0.0000   -0.0000   -0.0000    0.0000    0.0001    0.0000
        8 O1     2pz        0.0000    0.0000   -0.0002    0.0000   -0.0000   -0.0000   -0.0001   -0.0001    0.0000    0.0000
        9 O1     3pz        0.0000    0.0000   -0.0000   -0.0000   -0.0000   -0.0000   -0.0002   -0.0001    0.0000    0.0000
       10 O1     3d2-      -0.0000   -0.0000   -0.0000    0.0000   -0.0000    0.0000   -0.0000   -0.0000    0.0000   -0.0000
       11 O1     3d1-       0.0000    0.0000   -0.0000    0.0000    0.0000    0.0000    0.0000   -0.0000   -0.0000   -0.0000
       12 O1     3d0       -0.0000   -0.0000    0.0000   -0.0000    0.0000    0.0000    0.0000    0.0000   -0.0000   -0.0000
       13 O1     3d1+      -0.0000   -0.0000    0.0000   -0.0000   -0.0000    0.0000   -0.0000    0.0000    0.0000   -0.0000
       14 O1     3d2+      -0.0000    0.0000   -0.0000    0.0000   -0.0000   -0.0000   -0.0000   -0.0000    0.0000    0.0000
       15 FE2    1s         1.0000   -0.0001    0.0000   -0.0000    0.0000    0.0000    0.0002    0.0000   -0.0000   -0.0000
       16 FE2    2s         0.0001    0.9943   -0.0038    0.0021    0.0000    0.0000    0.1070    0.0000    0.0000    0.0000
       17 FE2    3s        -0.0002   -0.1069    0.0050    0.0038    0.0000    0.0000    0.9942   -0.0021    0.0000    0.0000
       18 FE2    4s        -0.0000   -0.0007    0.0000   -0.0000    0.0000    0.0000    0.0068    0.0007   -0.0000   -0.0000
       19 FE2    5s         0.0000    0.0005   -0.0000    0.0000   -0.0000   -0.0000   -0.0050   -0.0004    0.0000    0.0000
       20 FE2    2px       -0.0000    0.0000   -0.0000   -0.0000   -0.3480    0.9353    0.0000   -0.0000   -0.0239    0.0597
       21 FE2    3px       -0.0000    0.0000    0.0000    0.0000    0.0224   -0.0603    0.0000   -0.0000   -0.3711    0.9260
       22 FE2    4px        0.0000   -0.0000    0.0000    0.0000    0.0001   -0.0003   -0.0000   -0.0000   -0.0020    0.0050
       23 FE2    5px        0.0000   -0.0000   -0.0000   -0.0000   -0.0001    0.0003   -0.0000    0.0000    0.0025   -0.0061
       24 FE2    2py        0.0000   -0.0000    0.0000    0.0001    0.9353    0.3480   -0.0000    0.0000    0.0597    0.0239
       25 FE2    3py        0.0000   -0.0000   -0.0000   -0.0000   -0.0603   -0.0225   -0.0000    0.0001    0.9260    0.3711
       26 FE2    4py       -0.0000    0.0000   -0.0000   -0.0000   -0.0003   -0.0001    0.0000    0.0000    0.0050    0.0020
       27 FE2    5py       -0.0000    0.0000    0.0000    0.0000    0.0003    0.0001    0.0000   -0.0000   -0.0061   -0.0025
       28 FE2    2pz        0.0000   -0.0015    0.0451    0.9969   -0.0001   -0.0000   -0.0041    0.0638   -0.0000   -0.0000
       29 FE2    3pz       -0.0000   -0.0002   -0.0028   -0.0637    0.0000    0.0000    0.0024    0.9978   -0.0001   -0.0000
       30 FE2    4pz        0.0000   -0.0000   -0.0000   -0.0004    0.0000    0.0000    0.0002    0.0082   -0.0000   -0.0000
       31 FE2    5pz       -0.0000    0.0000    0.0000    0.0003   -0.0000   -0.0000   -0.0001   -0.0078    0.0000    0.0000
       32 FE2    3d2-       0.0000   -0.0000   -0.0000    0.0000    0.0000   -0.0000   -0.0000   -0.0000    0.0000   -0.0000
       33 FE2    4d2-       0.0000   -0.0000   -0.0000   -0.0000    0.0000   -0.0000   -0.0000   -0.0000    0.0000   -0.0000
       34 FE2    3d1-      -0.0000    0.0000    0.0000   -0.0000   -0.0001   -0.0001    0.0000    0.0000   -0.0213   -0.0085
       35 FE2    4d1-      -0.0000    0.0000    0.0000    0.0000   -0.0000   -0.0000    0.0000    0.0000   -0.0009   -0.0004
       36 FE2    3d0       -0.0000   -0.0001    0.0000   -0.0000    0.0000    0.0000    0.0010    0.0013    0.0000    0.0000
       37 FE2    4d0        0.0000   -0.0000    0.0000   -0.0000    0.0000    0.0000    0.0024    0.0000    0.0000    0.0000
       38 FE2    3d1+       0.0000   -0.0000   -0.0000    0.0000    0.0001   -0.0001   -0.0000   -0.0000    0.0085   -0.0213
       39 FE2    4d1+       0.0000   -0.0000   -0.0000   -0.0000    0.0000   -0.0000   -0.0000   -0.0000    0.0004   -0.0009
       40 FE2    3d2+       0.0000   -0.0000   -0.0000    0.0000    0.0000    0.0000   -0.0000   -0.0000    0.0000    0.0000
       41 FE2    4d2+       0.0000   -0.0000   -0.0000   -0.0000    0.0000    0.0000   -0.0000   -0.0000    0.0000    0.0000
       42 FE2    4f3-      -0.0000    0.0000   -0.0000    0.0000   -0.0000   -0.0000    0.0000   -0.0000   -0.0000   -0.0000
       43 FE2    4f2-       0.0000   -0.0000   -0.0000   -0.0000   -0.0000    0.0000   -0.0000    0.0000   -0.0000    0.0000
       44 FE2    4f1-      -0.0000    0.0000    0.0000    0.0000    0.0001    0.0000    0.0000   -0.0000    0.0022    0.0009
       45 FE2    4f0        0.0000    0.0000    0.0000    0.0002   -0.0000   -0.0000    0.0000   -0.0114   -0.0000   -0.0000
       46 FE2    4f1+       0.0000   -0.0000   -0.0000   -0.0000   -0.0000    0.0001   -0.0000    0.0000   -0.0009    0.0022
       47 FE2    4f2+       0.0000   -0.0000   -0.0000   -0.0000   -0.0000   -0.0000   -0.0000    0.0000   -0.0000   -0.0000
       48 FE2    4f3+      -0.0000    0.0000   -0.0000    0.0000    0.0000   -0.0000    0.0000   -0.0000    0.0000   -0.0000
 
          Orbital           11        12        13        14        15        16        17        18        19        20    
          Energy           -0.7443   -0.7443   -1.9182   -0.6402   -0.9233   -0.9233   -0.4003   -0.4003   -0.6400    1.4354
          Occ. No.          1.9989    1.9989    1.9940    1.0002    1.0000    1.0000    1.0000    1.0000    0.9998    0.0060
 
        1 O1     1s        -0.0000   -0.0000    0.0301   -0.0000    0.0000    0.0000    0.0000    0.0000   -0.0000    0.0001
        2 O1     2s        -0.0000   -0.0000    0.9978   -0.0041    0.0000    0.0000    0.0000    0.0000    0.0035    0.0112
        3 O1     3s         0.0000    0.0000   -0.0591    0.0020    0.0000    0.0000    0.0000    0.0000   -0.0024    0.2237
        4 O1     2px        0.0002    0.0000    0.0000    0.0006    0.2980   -0.9438   -0.0000    0.0000    0.0007   -0.0000
        5 O1     3px       -0.0002   -0.0001   -0.0000   -0.0001   -0.0430    0.1363    0.0000   -0.0000   -0.0001   -0.0000
        6 O1     2py        0.0000   -0.0002   -0.0000   -0.0022   -0.9438   -0.2980   -0.0000    0.0000   -0.0024    0.0000
        7 O1     3py       -0.0001    0.0002    0.0000    0.0003    0.1363    0.0430    0.0000   -0.0000    0.0003    0.0000
        8 O1     2pz        0.0000    0.0000   -0.0057   -0.7008   -0.0001   -0.0000   -0.0000    0.0000    0.7016    0.0002
        9 O1     3pz        0.0000    0.0000   -0.0008    0.0914    0.0000    0.0000    0.0000   -0.0000   -0.0897   -0.0108
       10 O1     3d2-       0.0000    0.0000   -0.0000    0.0000    0.0000   -0.0000   -0.0000    0.0000    0.0000   -0.0000
       11 O1     3d1-      -0.0000    0.0000   -0.0000    0.0000    0.0016    0.0005    0.0000   -0.0000    0.0000   -0.0002
       12 O1     3d0        0.0000    0.0000    0.0022    0.0007    0.0000    0.0000   -0.0000   -0.0000   -0.0008    0.9747
       13 O1     3d1+      -0.0000   -0.0000    0.0000   -0.0000   -0.0005    0.0016    0.0000   -0.0000   -0.0000    0.0000
       14 O1     3d2+      -0.0000    0.0000   -0.0000    0.0000    0.0000    0.0000   -0.0000   -0.0000    0.0000   -0.0000
       15 FE2    1s        -0.0000   -0.0000   -0.0000    0.0000    0.0000    0.0000    0.0000    0.0000   -0.0000   -0.0000
       16 FE2    2s         0.0000    0.0000    0.0000   -0.0000    0.0000    0.0000    0.0000    0.0000   -0.0000   -0.0000
       17 FE2    3s         0.0000    0.0000   -0.0001   -0.0006    0.0000    0.0000    0.0000    0.0000   -0.0007   -0.0000
       18 FE2    4s         0.0000    0.0000   -0.0002   -0.0083    0.0000    0.0000    0.0000    0.0000   -0.0100   -0.0020
       19 FE2    5s        -0.0000   -0.0000   -0.0006    0.0062   -0.0000   -0.0000   -0.0000   -0.0000    0.0044   -0.0042
       20 FE2    2px        0.0016    0.0004    0.0000    0.0000    0.0000   -0.0000   -0.0000    0.0000    0.0000    0.0000
       21 FE2    3px        0.0221    0.0054    0.0000    0.0000    0.0000   -0.0000   -0.0000    0.0000    0.0000   -0.0000
       22 FE2    4px        0.0118    0.0029    0.0000    0.0000    0.0001   -0.0004    0.0000   -0.0000    0.0000    0.0000
       23 FE2    5px        0.0005    0.0001   -0.0000    0.0000    0.0001   -0.0002    0.0000   -0.0000    0.0000    0.0000
       24 FE2    2py        0.0004   -0.0016   -0.0000   -0.0000   -0.0000   -0.0000    0.0000    0.0000   -0.0000   -0.0000
       25 FE2    3py        0.0054   -0.0221   -0.0000   -0.0000   -0.0000   -0.0000    0.0000    0.0000   -0.0000    0.0000
       26 FE2    4py        0.0029   -0.0118   -0.0000   -0.0000   -0.0004   -0.0001   -0.0000   -0.0000   -0.0000   -0.0000
       27 FE2    5py        0.0001   -0.0005    0.0000   -0.0000   -0.0002   -0.0001   -0.0000   -0.0000   -0.0000   -0.0000
       28 FE2    2pz        0.0000    0.0000    0.0000   -0.0000    0.0000    0.0000    0.0000    0.0000   -0.0000   -0.0000
       29 FE2    3pz        0.0000    0.0000   -0.0001   -0.0009    0.0000    0.0000   -0.0000   -0.0000   -0.0010   -0.0000
       30 FE2    4pz        0.0000    0.0000   -0.0003    0.0083   -0.0000   -0.0000    0.0000    0.0000    0.0064   -0.0026
       31 FE2    5pz        0.0000    0.0000   -0.0002    0.0006   -0.0000   -0.0000   -0.0000   -0.0000   -0.0000   -0.0014
       32 FE2    3d2-       0.0001    0.0000    0.0000   -0.0000   -0.0000    0.0000   -0.7695    0.6386   -0.0000   -0.0000
       33 FE2    4d2-       0.0000    0.0000    0.0000   -0.0000   -0.0000    0.0000   -0.0024    0.0020   -0.0000    0.0000
       34 FE2    3d1-       0.2386   -0.9695   -0.0000    0.0001    0.0002    0.0001   -0.0001   -0.0001    0.0001    0.0000
       35 FE2    4d1-       0.0119   -0.0485   -0.0000    0.0000   -0.0002   -0.0001   -0.0000   -0.0000    0.0000   -0.0000
       36 FE2    3d0        0.0000    0.0002   -0.0000    0.7070   -0.0034   -0.0001    0.0000    0.0000    0.7068   -0.0008
       37 FE2    4d0        0.0000    0.0000   -0.0001    0.0112   -0.0001   -0.0000   -0.0000   -0.0000    0.0107   -0.0011
       38 FE2    3d1+       0.9695    0.2386    0.0000   -0.0000   -0.0001    0.0002    0.0000   -0.0001   -0.0000   -0.0000
       39 FE2    4d1+       0.0485    0.0119    0.0000   -0.0000    0.0001   -0.0002    0.0000   -0.0000   -0.0000    0.0000
       40 FE2    3d2+      -0.0000    0.0001    0.0000   -0.0000   -0.0000    0.0000   -0.6386   -0.7695   -0.0000   -0.0000
       41 FE2    4d2+      -0.0000    0.0000    0.0000   -0.0000   -0.0000    0.0000   -0.0020   -0.0024   -0.0000    0.0000
       42 FE2    4f3-      -0.0000    0.0000    0.0000    0.0000   -0.0000    0.0000   -0.0000   -0.0000    0.0000    0.0000
       43 FE2    4f2-       0.0000    0.0000    0.0000   -0.0000   -0.0000    0.0000   -0.0005    0.0004   -0.0000   -0.0000
       44 FE2    4f1-       0.0002   -0.0008   -0.0000    0.0000   -0.0000   -0.0000   -0.0000   -0.0000    0.0000    0.0000
       45 FE2    4f0        0.0000    0.0000    0.0000    0.0006   -0.0000   -0.0000    0.0000    0.0000    0.0006   -0.0000
       46 FE2    4f1+       0.0008    0.0002    0.0000   -0.0000    0.0000   -0.0000    0.0000   -0.0000   -0.0000   -0.0000
       47 FE2    4f2+      -0.0000    0.0000    0.0000   -0.0000    0.0000    0.0000   -0.0004   -0.0005   -0.0000   -0.0000
       48 FE2    4f3+      -0.0000   -0.0000    0.0000    0.0000   -0.0000   -0.0000    0.0000   -0.0000    0.0000    0.0000
 
          Orbital           21        22        23        24        25        26        27        28        29        30    
          Energy            0.6959    0.6959    3.5218    3.5218    3.4796    0.5494    1.9996    1.9996    2.0391    0.4353
          Occ. No.          0.0011    0.0011    0.0002    0.0002    0.0002    0.0000    0.0000    0.0000    0.0000    0.0000
 
        1 O1     1s         0.0000    0.0000   -0.0000   -0.0000   -0.0001    0.0006    0.0000    0.0000   -0.0011   -0.0007
        2 O1     2s         0.0000    0.0000   -0.0000   -0.0000   -0.0012    0.0082    0.0000    0.0000   -0.0139   -0.0605
        3 O1     3s        -0.0000   -0.0000   -0.0000   -0.0000   -0.0016    0.0154    0.0000    0.0000   -0.0452   -0.9680
        4 O1     2px       -0.0000    0.0002   -0.0001    0.0001    0.0000   -0.0000    0.0009   -0.0026    0.0000   -0.0000
        5 O1     3px       -0.0011    0.0040   -0.0001    0.0003    0.0000   -0.0000    0.0044   -0.0121    0.0000   -0.0000
        6 O1     2py        0.0002    0.0000    0.0001    0.0001   -0.0000    0.0000   -0.0026   -0.0009   -0.0000    0.0000
        7 O1     3py        0.0040    0.0011    0.0003    0.0001   -0.0000    0.0000   -0.0121   -0.0044   -0.0000    0.0000
        8 O1     2pz       -0.0000   -0.0000    0.0000    0.0000    0.0007   -0.0112   -0.0000   -0.0000    0.0150   -0.0071
        9 O1     3pz        0.0000    0.0000   -0.0000   -0.0000    0.0015   -0.0371   -0.0000   -0.0000    0.0618   -0.0498
       10 O1     3d2-      -0.0000    0.0000    0.0000   -0.0000    0.0000   -0.0000   -0.0000    0.0000   -0.0000   -0.0000
       11 O1     3d1-      -0.0002   -0.0001   -0.0000   -0.0000    0.0000   -0.0000    0.0011    0.0004   -0.0000   -0.0000
       12 O1     3d0        0.0000    0.0000   -0.0000   -0.0000   -0.0007    0.0047    0.0000    0.0000    0.0009    0.2199
       13 O1     3d1+       0.0001   -0.0002    0.0000   -0.0000   -0.0000    0.0000   -0.0004    0.0011    0.0000    0.0000
       14 O1     3d2+      -0.0000   -0.0000    0.0000    0.0000    0.0000   -0.0000   -0.0000   -0.0000   -0.0000   -0.0000
       15 FE2    1s        -0.0000   -0.0000    0.0000    0.0000    0.0000   -0.0000   -0.0000   -0.0000    0.0000   -0.0000
       16 FE2    2s        -0.0000   -0.0000   -0.0000   -0.0000   -0.0000    0.0002   -0.0000   -0.0000    0.0000   -0.0000
       17 FE2    3s         0.0000    0.0000   -0.0000   -0.0000    0.0000   -0.0019   -0.0000   -0.0000    0.0003    0.0004
       18 FE2    4s        -0.0001   -0.0000    0.0000    0.0000   -0.0031    0.3312   -0.0000   -0.0000    0.0001    0.0306
       19 FE2    5s         0.0000    0.0000   -0.0000   -0.0000    0.0011   -0.3345   -0.0000   -0.0000    0.0188    0.1202
       20 FE2    2px       -0.0000    0.0000    0.0001   -0.0003   -0.0000    0.0000   -0.0000    0.0000   -0.0000   -0.0000
       21 FE2    3px        0.0002   -0.0008    0.0018   -0.0046   -0.0000    0.0000   -0.0023    0.0064   -0.0000    0.0000
       22 FE2    4px       -0.0347    0.1225   -0.0771    0.1959    0.0000   -0.0000    0.0718   -0.1979    0.0000   -0.0000
       23 FE2    5px       -0.0024    0.0083    0.0782   -0.1985   -0.0000   -0.0000   -0.3216    0.8863   -0.0000    0.0000
       24 FE2    2py        0.0000    0.0000   -0.0003   -0.0001    0.0000   -0.0000    0.0000    0.0000    0.0000    0.0000
       25 FE2    3py       -0.0008   -0.0002   -0.0046   -0.0018    0.0000   -0.0000    0.0064    0.0023    0.0000   -0.0000
       26 FE2    4py        0.1225    0.0347    0.1959    0.0771   -0.0000    0.0000   -0.1979   -0.0718   -0.0000    0.0000
       27 FE2    5py        0.0083    0.0024   -0.1985   -0.0782    0.0000    0.0000    0.8863    0.3216    0.0001   -0.0000
       28 FE2    2pz        0.0000    0.0000    0.0000    0.0000    0.0006   -0.0000    0.0000    0.0000    0.0000    0.0000
       29 FE2    3pz        0.0000    0.0000    0.0000    0.0000    0.0145   -0.0001   -0.0000   -0.0000    0.0057   -0.0003
       30 FE2    4pz       -0.0000   -0.0000   -0.0000   -0.0000   -0.2444   -0.0317    0.0000    0.0000   -0.0984    0.0536
       31 FE2    5pz       -0.0000   -0.0000    0.0000    0.0000    0.2099   -0.0021   -0.0001   -0.0000    0.9680   -0.0099
       32 FE2    3d2-       0.0000   -0.0000   -0.0000    0.0000   -0.0000    0.0000    0.0000   -0.0000   -0.0000   -0.0000
       33 FE2    4d2-      -0.0000    0.0001    0.0000   -0.0000    0.0000    0.0000   -0.0000    0.0000    0.0000    0.0000
       34 FE2    3d1-      -0.0491   -0.0139   -0.0012   -0.0005    0.0000    0.0000    0.0009    0.0003    0.0000    0.0000
       35 FE2    4d1-       0.9528    0.2701   -0.0343   -0.0135   -0.0000   -0.0001    0.0149    0.0054   -0.0000   -0.0000
       36 FE2    3d0        0.0000    0.0000    0.0000    0.0000    0.0014    0.0204   -0.0000   -0.0000    0.0013    0.0004
       37 FE2    4d0       -0.0002   -0.0000    0.0000    0.0000    0.0194   -0.8834   -0.0000   -0.0000   -0.0038   -0.0290
       38 FE2    3d1+       0.0139   -0.0491    0.0005   -0.0012   -0.0000   -0.0000   -0.0003    0.0009   -0.0000   -0.0000
       39 FE2    4d1+      -0.2701    0.9528    0.0135   -0.0343    0.0000    0.0000   -0.0054    0.0149    0.0000    0.0000
       40 FE2    3d2+       0.0000    0.0000   -0.0000   -0.0000   -0.0000    0.0000    0.0000    0.0000   -0.0000   -0.0000
       41 FE2    4d2+      -0.0001   -0.0000    0.0000    0.0000    0.0000    0.0000   -0.0000   -0.0000    0.0000    0.0000
       42 FE2    4f3-      -0.0000   -0.0000   -0.0000   -0.0000    0.0000    0.0000   -0.0000   -0.0000   -0.0000    0.0000
       43 FE2    4f2-      -0.0000    0.0000   -0.0001    0.0001   -0.0000    0.0000   -0.0000    0.0000    0.0000   -0.0000
       44 FE2    4f1-       0.0116    0.0033    0.8870    0.3493    0.0002   -0.0000    0.2426    0.0880   -0.0001    0.0000
       45 FE2    4f0       -0.0000   -0.0000   -0.0002   -0.0000    0.9464    0.0117   -0.0001   -0.0000   -0.2400    0.0173
       46 FE2    4f1+      -0.0033    0.0116   -0.3493    0.8870   -0.0000    0.0000   -0.0880    0.2426    0.0000   -0.0000
       47 FE2    4f2+      -0.0000   -0.0000   -0.0001   -0.0001   -0.0000    0.0000   -0.0000   -0.0000    0.0000   -0.0000
       48 FE2    4f3+       0.0000   -0.0000    0.0000   -0.0000    0.0000    0.0000    0.0000   -0.0000   -0.0000    0.0000
 
          Orbital           31        32        33        34        35        36        37        38        39        40    
          Energy            0.0616   -0.2326   -0.0115   -0.0115    0.0380    0.0971    0.0971    0.0971    0.7340    0.7343
          Occ. No.          0.0000    0.0000    0.0000    0.0000    0.0000    0.0000    0.0000    0.0000    0.0000    0.0000
 
        1 O1     1s        -0.0008    0.0014   -0.0000    0.0000    0.0003    0.0005    0.0000    0.0000   -0.0000    0.0000
        2 O1     2s        -0.0059    0.0123   -0.0000    0.0000    0.0010    0.0058    0.0000    0.0000   -0.0000    0.0000
        3 O1     3s         0.0542   -0.0622    0.0000    0.0000   -0.0609    0.0246    0.0000    0.0000   -0.0000    0.0000
        4 O1     2px       -0.0000    0.0000    0.0002   -0.0006    0.0000    0.0000   -0.1376   -0.0389    0.0002   -0.0003
        5 O1     3px        0.0000    0.0000    0.0028   -0.0100    0.0000    0.0002   -0.9524   -0.2696    0.0011   -0.0018
        6 O1     2py        0.0000   -0.0000   -0.0006   -0.0002   -0.0000   -0.0001   -0.0389    0.1376   -0.0004    0.0003
        7 O1     3py       -0.0000   -0.0000   -0.0102   -0.0028   -0.0001   -0.0005   -0.2696    0.9524   -0.0024    0.0023
        8 O1     2pz        0.0145   -0.0171   -0.0000   -0.0000    0.0810   -0.1015   -0.0000   -0.0000    0.0000   -0.0000
        9 O1     3pz        0.0654   -0.0340   -0.0001   -0.0000    0.6518   -0.7555   -0.0000   -0.0003    0.0000   -0.0000
       10 O1     3d2-       0.0000    0.0000   -0.0000    0.0000   -0.0000   -0.0000    0.0006    0.0005    0.0021    0.0033
       11 O1     3d1-       0.0000   -0.0000    0.0002    0.0000    0.0000    0.0001    0.0002   -0.0039   -0.0063    0.0058
       12 O1     3d0       -0.0177    0.0280   -0.0000   -0.0000    0.0242   -0.0081   -0.0000   -0.0000   -0.0000    0.0000
       13 O1     3d1+      -0.0000    0.0000   -0.0000    0.0002   -0.0000   -0.0000    0.0017    0.0016    0.0021   -0.0014
       14 O1     3d2+       0.0000    0.0000   -0.0000    0.0000   -0.0000   -0.0000    0.0002    0.0007   -0.0061   -0.0223
       15 FE2    1s         0.0000   -0.0000   -0.0000   -0.0000    0.0000   -0.0000   -0.0000   -0.0000    0.0000   -0.0000
       16 FE2    2s         0.0001   -0.0000   -0.0000   -0.0000    0.0002   -0.0002   -0.0000   -0.0000    0.0000   -0.0000
       17 FE2    3s         0.0084    0.0022   -0.0000   -0.0000    0.0007   -0.0013   -0.0000   -0.0000    0.0000   -0.0000
       18 FE2    4s        -0.5411   -0.7645   -0.0000   -0.0000    0.1220    0.0048    0.0000    0.0000    0.0000    0.0000
       19 FE2    5s         0.6964   -0.6325   -0.0000   -0.0000    0.0585    0.0049    0.0000    0.0000    0.0000   -0.0000
       20 FE2    2px        0.0000    0.0000    0.0000   -0.0000    0.0000    0.0000    0.0000    0.0000   -0.0000    0.0000
       21 FE2    3px       -0.0000   -0.0000   -0.0009    0.0032   -0.0000   -0.0000    0.0001    0.0000   -0.0000    0.0000
       22 FE2    4px        0.0000    0.0000    0.2518   -0.9116    0.0000    0.0000    0.0247    0.0070    0.0001   -0.0001
       23 FE2    5px        0.0000    0.0000    0.0682   -0.2470    0.0000    0.0000    0.0067    0.0019    0.0000   -0.0000
       24 FE2    2py       -0.0000   -0.0000   -0.0000   -0.0000   -0.0000   -0.0000    0.0000   -0.0000    0.0000   -0.0000
       25 FE2    3py        0.0000    0.0000    0.0032    0.0009    0.0000    0.0000    0.0000   -0.0001    0.0000   -0.0000
       26 FE2    4py       -0.0000   -0.0000   -0.9116   -0.2518   -0.0001   -0.0000    0.0070   -0.0248    0.0001   -0.0001
       27 FE2    5py       -0.0000   -0.0000   -0.2470   -0.0682   -0.0000    0.0000    0.0019   -0.0067    0.0000   -0.0000
       28 FE2    2pz       -0.0000   -0.0000    0.0000   -0.0000   -0.0000   -0.0001   -0.0000   -0.0000    0.0000   -0.0000
       29 FE2    3pz        0.0010    0.0007   -0.0000   -0.0000    0.0039    0.0018    0.0000    0.0000   -0.0000    0.0000
       30 FE2    4pz       -0.0389   -0.1004    0.0001    0.0000   -0.6759   -0.6805   -0.0000   -0.0004    0.0000   -0.0000
       31 FE2    5pz       -0.0153   -0.0152    0.0000    0.0000   -0.1111   -0.1108   -0.0000   -0.0001    0.0000   -0.0000
       32 FE2    3d2-      -0.0000   -0.0000    0.0000    0.0000   -0.0000   -0.0000    0.0000    0.0000   -0.0008   -0.0030
       33 FE2    4d2-       0.0000    0.0000   -0.0000   -0.0001    0.0000    0.0000   -0.0010   -0.0019    0.2571    0.9661
       34 FE2    3d1-       0.0000    0.0000    0.0051    0.0014    0.0000    0.0000    0.0003   -0.0011    0.0000   -0.0000
       35 FE2    4d1-      -0.0002   -0.0001    0.1181    0.0326    0.0000   -0.0000    0.0040   -0.0139   -0.0001    0.0000
       36 FE2    3d0       -0.0042   -0.0037   -0.0000   -0.0000    0.0118    0.0022    0.0000    0.0000   -0.0000    0.0000
       37 FE2    4d0       -0.4627   -0.0504   -0.0000   -0.0000    0.0591    0.0035    0.0000    0.0000   -0.0000    0.0000
       38 FE2    3d1+      -0.0000   -0.0000   -0.0014    0.0051   -0.0000   -0.0000    0.0011    0.0003   -0.0000    0.0000
       39 FE2    4d1+       0.0000    0.0000   -0.0326    0.1181   -0.0000   -0.0000    0.0140    0.0039   -0.0001   -0.0000
       40 FE2    3d2+      -0.0000   -0.0000    0.0000    0.0000   -0.0000   -0.0000    0.0000    0.0000    0.0030   -0.0008
       41 FE2    4d2+       0.0000    0.0000   -0.0000   -0.0001    0.0000    0.0000   -0.0007   -0.0032   -0.9663    0.2571
       42 FE2    4f3-      -0.0000   -0.0000    0.0000   -0.0000   -0.0000    0.0000   -0.0002   -0.0002    0.0000   -0.0000
       43 FE2    4f2-      -0.0000    0.0000   -0.0000    0.0000    0.0000   -0.0000   -0.0000   -0.0000    0.0001    0.0004
       44 FE2    4f1-       0.0000   -0.0000    0.1506    0.0416   -0.0000   -0.0000   -0.0011    0.0039   -0.0000    0.0000
[...]
ATVX     1  Mu1.0010  Se1.027                       0.19209226      0.00000000     -0.00000000     -0.00000000
ATVX     1  Mu1.0011  Se1.027                       0.19477738      0.00000092     -0.00001311     -0.00000000
ATVX     1  Mu1.0012  Se1.027                       0.19478284     -0.00000140      0.00001988     -0.00000000
ATVX     1  Mu1.0013  Se1.027                       0.19895372     -0.00000049      0.00000145     -0.00000000
ATVX     1  Mu1.0014  Se1.027                       0.19897967     -0.00000005      0.00000015     -0.00000000
ATVX     1  Mu1.0015  Se1.027                       0.20752013      0.00000000     -0.00000000     -0.00000000
ATVX     1  Mu1.0016  Se1.027                       0.20752013      0.00000000      0.00000000      0.00000000
ATVX     1  Mu1.0017  Se1.027                       0.21068127      0.00000000     -0.00000000     -0.00000000
ATVX     1  Mu1.0018  Se1.027                       0.21069781     -0.00000000      0.00000000     -0.00000000
ATVX     1  Mu1.0019  Se1.027                       0.23489441     -0.00000000     -0.00000000      0.00000000
ATVX     1  Mu1.0020  Se1.027                       0.23489442     -0.00000000      0.00000000     -0.00000000
ATVX     1  Mu1.0021  Se1.027                       0.24651204     -0.00000000      0.00000000     -0.00000000
ATVX     1  Mu1.0022  Se1.027                       0.24651209     -0.00000000      0.00000000     -0.00000000
ATVX     1  Mu1.0023  Se1.027                       0.28824132      0.00000013     -0.00000043     -0.00000000
ATVX     1  Mu1.0024  Se1.027                       0.28824676      0.00000009     -0.00000030     -0.00000000
ATVX     1  Mu1.0025  Se1.027                       0.29115487      0.00000000     -0.00000000     -0.00000000
ATVX     1  Mu1.0026  Se1.027                       0.29116586     -0.00000000      0.00000000     -0.00000000
ATVX     1  Mu1.0027  Se1.027                       0.29757638     -0.00000000      0.00000000     -0.00000000
ATVX     1  Mu1.0028  Se1.027                       0.29758152     -0.00000000      0.00000000     -0.00000000
ATVX     1  Mu1.0001  Se1.028                      -0.24200061      0.00000000      0.00000000      0.00000000
ATVX     1  Mu1.0002  Se1.028                      -0.15729110     -0.00000000     -0.00000000      0.00000000
ATVX     1  Mu1.0003  Se1.028                      -0.15728604      0.00000013      0.00000118      0.00000000
ATVX     1  Mu1.0004  Se1.028                      -0.11459687      0.00000000      0.00000000      0.00000000
ATVX     1  Mu1.0005  Se1.028                       0.00627955      0.00000240     -0.00101842     -0.00000000
ATVX     1  Mu1.0006  Se1.028                       0.00627955     -0.00000480      0.00203652     -0.00000001
ATVX     1  Mu1.0007  Se1.028                       0.18206569      0.00000059     -0.00000314     -0.00000000
ATVX     1  Mu1.0008  Se1.028                       0.18206570     -0.00000001      0.00000005     -0.00000000
ATVX     1  Mu1.0009  Se1.028                       0.19857296     -0.00000000      0.00000000     -0.00000000
ATVX     1  Mu1.0010  Se1.028                       0.19857808     -0.00000000     -0.00000000      0.00000000
ATVX     1  Mu1.0011  Se1.028                       0.20126319     -0.00000000      0.00000000     -0.00000000
ATVX     1  Mu1.0012  Se1.028                       0.20126866     -0.00000000      0.00000000     -0.00000000
ATVX     1  Mu1.0013  Se1.028                       0.20543953      0.00000000     -0.00000000     -0.00000000
ATVX     1  Mu1.0014  Se1.028                       0.20546549     -0.00000000     -0.00000000      0.00000000
ATVX     1  Mu1.0015  Se1.028                       0.21400595      0.00000000      0.00000002      0.00000000
ATVX     1  Mu1.0016  Se1.028                       0.21400595     -0.00000040     -0.00000784      0.00000000
ATVX     1  Mu1.0017  Se1.028                       0.21716709     -0.00000000     -0.00000000      0.00000000
ATVX     1  Mu1.0018  Se1.028                       0.21718363     -0.00000000     -0.00000000      0.00000000
ATVX     1  Mu1.0019  Se1.028                       0.24138023     -0.00000001      0.00000012     -0.00000000
ATVX     1  Mu1.0020  Se1.028                       0.24138023      0.00000000     -0.00000000     -0.00000000
ATVX     1  Mu1.0021  Se1.028                       0.25299786      0.00000000     -0.00000000     -0.00000000
ATVX     1  Mu1.0022  Se1.028                       0.25299791     -0.00000093      0.00000109     -0.00000000
ATVX     1  Mu1.0023  Se1.028                       0.29472713     -0.00000000      0.00000000     -0.00000000
ATVX     1  Mu1.0024  Se1.028                       0.29473258      0.00000000     -0.00000000     -0.00000000
ATVX     1  Mu1.0025  Se1.028                       0.29764069      0.00000018     -0.00000047     -0.00000000
ATVX     1  Mu1.0026  Se1.028                       0.29765168      0.00000000     -0.00000000     -0.00000000
ATVX     1  Mu1.0001  Se1.029                      -0.24199952     -0.00000000     -0.00000000      0.00000000
ATVX     1  Mu1.0002  Se1.029                      -0.15729000      0.00000013      0.00000118      0.00000000
ATVX     1  Mu1.0003  Se1.029                      -0.15728495      0.00000000      0.00000000      0.00000000
ATVX     1  Mu1.0004  Se1.029                      -0.11459578      0.00000000      0.00000000      0.00000000
ATVX     1  Mu1.0005  Se1.029                       0.00628064     -0.00000480      0.00202377     -0.00000001
ATVX     1  Mu1.0006  Se1.029                       0.00628065     -0.00000240      0.00101200     -0.00000000
ATVX     1  Mu1.0007  Se1.029                       0.18206678     -0.00000001      0.00000005     -0.00000000
ATVX     1  Mu1.0008  Se1.029                       0.18206679     -0.00000059      0.00000314     -0.00000000
ATVX     1  Mu1.0009  Se1.029                       0.19857405     -0.00000000      0.00000000     -0.00000000
ATVX     1  Mu1.0010  Se1.029                       0.19857917      0.00000000     -0.00000000     -0.00000000
ATVX     1  Mu1.0011  Se1.029                       0.20126429      0.00000000     -0.00000000     -0.00000000
ATVX     1  Mu1.0012  Se1.029                       0.20126975     -0.00000000      0.00000000     -0.00000000
ATVX     1  Mu1.0013  Se1.029                       0.20544063     -0.00000000      0.00000000     -0.00000000
ATVX     1  Mu1.0014  Se1.029                       0.20546658     -0.00000000      0.00000000     -0.00000000
ATVX     1  Mu1.0015  Se1.029                       0.21400704      0.00000040      0.00000780      0.00000000
ATVX     1  Mu1.0016  Se1.029                       0.21400704      0.00000000      0.00000002      0.00000000
ATVX     1  Mu1.0017  Se1.029                       0.21716818      0.00000000     -0.00000000     -0.00000000
ATVX     1  Mu1.0018  Se1.029                       0.21718472     -0.00000000      0.00000000     -0.00000000
ATVX     1  Mu1.0019  Se1.029                       0.24138132     -0.00000000      0.00000000     -0.00000000
ATVX     1  Mu1.0020  Se1.029                       0.24138132     -0.00000001      0.00000012     -0.00000000
ATVX     1  Mu1.0021  Se1.029                       0.25299895     -0.00000093      0.00000111     -0.00000000
ATVX     1  Mu1.0022  Se1.029                       0.25299900     -0.00000000      0.00000000     -0.00000000
ATVX     1  Mu1.0023  Se1.029                       0.29472823     -0.00000000      0.00000000     -0.00000000
ATVX     1  Mu1.0024  Se1.029                       0.29473367      0.00000000     -0.00000000     -0.00000000
ATVX     1  Mu1.0025  Se1.029                       0.29764178     -0.00000000      0.00000000     -0.00000000
ATVX     1  Mu1.0026  Se1.029                       0.29765277      0.00000018     -0.00000047     -0.00000000
ATVX     1  Mu1.0001  Se1.030                      -0.07835801      0.00000000      0.00000000      0.00000000
ATVX     1  Mu1.0002  Se1.030                       0.00635151     -0.00000000      0.00000000     -0.00000000
ATVX     1  Mu1.0003  Se1.030                       0.00635656      0.00000000     -0.00000000     -0.00000000
ATVX     1  Mu1.0004  Se1.030                       0.04904573     -0.00000000      0.00000000     -0.00000000
ATVX     1  Mu1.0005  Se1.030                       0.16992215      0.00000000     -0.00000000     -0.00000000
ATVX     1  Mu1.0006  Se1.030                       0.16992216     -0.00000000      0.00000000     -0.00000000
ATVX     1  Mu1.0270  Se1.031                       2.30131552      0.09378542     -0.04225116     -0.00396254
ATVX     1  Mu1.0271  Se1.032                       2.30131555      0.09378541     -0.04225115     -0.00396254
AIVX     1  Mu1.0143  In1.011 Se1.033               3.35967397     -0.09300357      0.02793665     -0.00259821
AIVX     1  Mu1.0126  In1.008 Se1.034               6.29071073      0.16763891     -0.02665067     -0.00446769
AIVX     1  Mu1.0126  In1.009 Se1.035               6.29453148     -0.16716290      0.02655558     -0.00443911
AIVX     1  Mu1.0169  In1.009 Se1.035               6.56066899      0.17705071     -0.02698671     -0.00477802
AIVX     1  Mu1.0126  In1.010 Se1.036               6.29453333     -0.16716317      0.02655562     -0.00443912
AIVX     1  Mu1.0169  In1.010 Se1.036               6.56067084      0.17705029     -0.02698663     -0.00477799
AIVX     1  Mu1.0032  In1.011 Se1.037               3.46869925     -0.10390008      0.02868672     -0.00298055
AIVX     1  Mu1.0033  In1.011 Se1.037               3.46869925     -0.10366083      0.02862066     -0.00296684
AIVX     1  Mu1.0051  In1.011 Se1.038               3.71867673      0.14674295     -0.03788763     -0.00555974
BVATM    1  Mu1.0001  Se1.027 Se1.026               0.22603461      0.00000000     -0.00000000     -0.00000000
BVATM    1  Mu1.0001  Se1.028 Se1.026               0.23252042     -0.00000000      0.00000000     -0.00000000
BVATM    1  Mu1.0001  Se1.029 Se1.026               0.23252152      0.00000000     -0.00000000     -0.00000000
BVATM    1  Mu1.0001  Se1.032 Se1.031               1.95694329      0.07198438     -0.03710442     -0.00267094
BVATM    1  Mu1.0001  Se1.038 Se1.037               5.00976386      0.12960622     -0.02587073     -0.00335301
BJATP    1  Mu1.0002  In1.011 Se1.033 Se1.031       2.94121786      0.08252361     -0.02791885     -0.00230396
BJATP    1  Mu1.0001  In1.011 Se1.033 Se1.032       2.94121786     -0.08252361      0.02791885     -0.00230396
BJATM    1  Mu1.0002  In1.011 Se1.033 Se1.031       2.94121786     -0.07861836      0.02864836     -0.00225229
BJATM    1  Mu1.0001  In1.011 Se1.033 Se1.032       2.94121786      0.07861836     -0.02864836     -0.00225229
BJAIP    1  Se1.033 In1.011 Se1.033 In1.011         3.92548407      0.12237669     -0.03330122     -0.00407529
--
 
   (Skipping property calculation,
    use PROP keyword to activate)
--
 
  Total CASPT2 energies:
::    CASPT2 Root  1     Total energy:  -1345.82550407
 
  A NEW JOBIPH FILE NAMED 'JOBMIX' IS PREPARED.
********************************************************************************
--- Stop Module: caspt2 at Wed Dec 25 11:13:42 2024 /rc=_RC_ALL_IS_WELL_ ---
*** files: xmldump
    saved to directory /home/grierjones/DDCASPT2/iron_oxo_DDCASPT2/cluster/5.82
--- Module caspt2 spent 5 minutes 32 seconds ---

>>> EXPORT i = B

>>> EXPORT j = P

>>> IF (-FILE GMJ_e2_${i}_${j}.csv)

>>> COPY /tmp/5.82/GMJ_RHS_B_P.csv /home/grierjones/DDCASPT2/iron_oxo_DDCASPT2/cluster/5.82/GMJ_RHS_B_P.csv

>>> COPY /tmp/5.82/GMJ_IVECW_B_P.csv /home/grierjones/DDCASPT2/iron_oxo_DDCASPT2/cluster/5.82/GMJ_IVECW_B_P.csv

>>> COPY /tmp/5.82/GMJ_IVECX_B_P.csv /home/grierjones/DDCASPT2/iron_oxo_DDCASPT2/cluster/5.82/GMJ_IVECX_B_P.csv

>>> COPY /tmp/5.82/GMJ_IVECC2_B_P.csv /home/grierjones/DDCASPT2/iron_oxo_DDCASPT2/cluster/5.82/GMJ_IVECC2_B_P.csv

>>> COPY /tmp/5.82/GMJ_e2_B_P.csv /home/grierjones/DDCASPT2/iron_oxo_DDCASPT2/cluster/5.82/GMJ_e2_B_P.csv

>>> END FOREACH

>>> EXPORT j = M

>>> IF (-FILE GMJ_e2_${i}_${j}.csv)

>>> COPY /tmp/5.82/GMJ_RHS_B_M.csv /home/grierjones/DDCASPT2/iron_oxo_DDCASPT2/cluster/5.82/GMJ_RHS_B_M.csv

>>> COPY /tmp/5.82/GMJ_IVECW_B_M.csv /home/grierjones/DDCASPT2/iron_oxo_DDCASPT2/cluster/5.82/GMJ_IVECW_B_M.csv

>>> COPY /tmp/5.82/GMJ_IVECX_B_M.csv /home/grierjones/DDCASPT2/iron_oxo_DDCASPT2/cluster/5.82/GMJ_IVECX_B_M.csv

>>> COPY /tmp/5.82/GMJ_IVECC2_B_M.csv /home/grierjones/DDCASPT2/iron_oxo_DDCASPT2/cluster/5.82/GMJ_IVECC2_B_M.csv

>>> COPY /tmp/5.82/GMJ_e2_B_M.csv /home/grierjones/DDCASPT2/iron_oxo_DDCASPT2/cluster/5.82/GMJ_e2_B_M.csv

>>> END FOREACH

>>> END FOREACH

>>> EXPORT i = E

>>> EXPORT j = P

>>> IF (-FILE GMJ_e2_${i}_${j}.csv)

>>> COPY /tmp/5.82/GMJ_RHS_E_P.csv /home/grierjones/DDCASPT2/iron_oxo_DDCASPT2/cluster/5.82/GMJ_RHS_E_P.csv

>>> COPY /tmp/5.82/GMJ_IVECW_E_P.csv /home/grierjones/DDCASPT2/iron_oxo_DDCASPT2/cluster/5.82/GMJ_IVECW_E_P.csv

>>> COPY /tmp/5.82/GMJ_IVECX_E_P.csv /home/grierjones/DDCASPT2/iron_oxo_DDCASPT2/cluster/5.82/GMJ_IVECX_E_P.csv

>>> COPY /tmp/5.82/GMJ_IVECC2_E_P.csv /home/grierjones/DDCASPT2/iron_oxo_DDCASPT2/cluster/5.82/GMJ_IVECC2_E_P.csv

>>> COPY /tmp/5.82/GMJ_e2_E_P.csv /home/grierjones/DDCASPT2/iron_oxo_DDCASPT2/cluster/5.82/GMJ_e2_E_P.csv

>>> END FOREACH

>>> EXPORT j = M

>>> IF (-FILE GMJ_e2_${i}_${j}.csv)

>>> COPY /tmp/5.82/GMJ_RHS_E_M.csv /home/grierjones/DDCASPT2/iron_oxo_DDCASPT2/cluster/5.82/GMJ_RHS_E_M.csv

>>> COPY /tmp/5.82/GMJ_IVECW_E_M.csv /home/grierjones/DDCASPT2/iron_oxo_DDCASPT2/cluster/5.82/GMJ_IVECW_E_M.csv

>>> COPY /tmp/5.82/GMJ_IVECX_E_M.csv /home/grierjones/DDCASPT2/iron_oxo_DDCASPT2/cluster/5.82/GMJ_IVECX_E_M.csv

>>> COPY /tmp/5.82/GMJ_IVECC2_E_M.csv /home/grierjones/DDCASPT2/iron_oxo_DDCASPT2/cluster/5.82/GMJ_IVECC2_E_M.csv

>>> COPY /tmp/5.82/GMJ_e2_E_M.csv /home/grierjones/DDCASPT2/iron_oxo_DDCASPT2/cluster/5.82/GMJ_e2_E_M.csv

>>> END FOREACH

>>> END FOREACH

>>> EXPORT i = F

>>> EXPORT j = P

>>> IF (-FILE GMJ_e2_${i}_${j}.csv)

>>> COPY /tmp/5.82/GMJ_RHS_F_P.csv /home/grierjones/DDCASPT2/iron_oxo_DDCASPT2/cluster/5.82/GMJ_RHS_F_P.csv

>>> COPY /tmp/5.82/GMJ_IVECW_F_P.csv /home/grierjones/DDCASPT2/iron_oxo_DDCASPT2/cluster/5.82/GMJ_IVECW_F_P.csv

>>> COPY /tmp/5.82/GMJ_IVECX_F_P.csv /home/grierjones/DDCASPT2/iron_oxo_DDCASPT2/cluster/5.82/GMJ_IVECX_F_P.csv

>>> COPY /tmp/5.82/GMJ_IVECC2_F_P.csv /home/grierjones/DDCASPT2/iron_oxo_DDCASPT2/cluster/5.82/GMJ_IVECC2_F_P.csv

>>> COPY /tmp/5.82/GMJ_e2_F_P.csv /home/grierjones/DDCASPT2/iron_oxo_DDCASPT2/cluster/5.82/GMJ_e2_F_P.csv

>>> END FOREACH

>>> EXPORT j = M

>>> IF (-FILE GMJ_e2_${i}_${j}.csv)

>>> COPY /tmp/5.82/GMJ_RHS_F_M.csv /home/grierjones/DDCASPT2/iron_oxo_DDCASPT2/cluster/5.82/GMJ_RHS_F_M.csv

>>> COPY /tmp/5.82/GMJ_IVECW_F_M.csv /home/grierjones/DDCASPT2/iron_oxo_DDCASPT2/cluster/5.82/GMJ_IVECW_F_M.csv

>>> COPY /tmp/5.82/GMJ_IVECX_F_M.csv /home/grierjones/DDCASPT2/iron_oxo_DDCASPT2/cluster/5.82/GMJ_IVECX_F_M.csv

>>> COPY /tmp/5.82/GMJ_IVECC2_F_M.csv /home/grierjones/DDCASPT2/iron_oxo_DDCASPT2/cluster/5.82/GMJ_IVECC2_F_M.csv

>>> COPY /tmp/5.82/GMJ_e2_F_M.csv /home/grierjones/DDCASPT2/iron_oxo_DDCASPT2/cluster/5.82/GMJ_e2_F_M.csv

>>> END FOREACH

>>> END FOREACH

>>> EXPORT i = G

>>> EXPORT j = P

>>> IF (-FILE GMJ_e2_${i}_${j}.csv)

>>> COPY /tmp/5.82/GMJ_RHS_G_P.csv /home/grierjones/DDCASPT2/iron_oxo_DDCASPT2/cluster/5.82/GMJ_RHS_G_P.csv

>>> COPY /tmp/5.82/GMJ_IVECW_G_P.csv /home/grierjones/DDCASPT2/iron_oxo_DDCASPT2/cluster/5.82/GMJ_IVECW_G_P.csv

>>> COPY /tmp/5.82/GMJ_IVECX_G_P.csv /home/grierjones/DDCASPT2/iron_oxo_DDCASPT2/cluster/5.82/GMJ_IVECX_G_P.csv

>>> COPY /tmp/5.82/GMJ_IVECC2_G_P.csv /home/grierjones/DDCASPT2/iron_oxo_DDCASPT2/cluster/5.82/GMJ_IVECC2_G_P.csv

>>> COPY /tmp/5.82/GMJ_e2_G_P.csv /home/grierjones/DDCASPT2/iron_oxo_DDCASPT2/cluster/5.82/GMJ_e2_G_P.csv

>>> END FOREACH

>>> EXPORT j = M

>>> IF (-FILE GMJ_e2_${i}_${j}.csv)

>>> COPY /tmp/5.82/GMJ_RHS_G_M.csv /home/grierjones/DDCASPT2/iron_oxo_DDCASPT2/cluster/5.82/GMJ_RHS_G_M.csv

>>> COPY /tmp/5.82/GMJ_IVECW_G_M.csv /home/grierjones/DDCASPT2/iron_oxo_DDCASPT2/cluster/5.82/GMJ_IVECW_G_M.csv

>>> COPY /tmp/5.82/GMJ_IVECX_G_M.csv /home/grierjones/DDCASPT2/iron_oxo_DDCASPT2/cluster/5.82/GMJ_IVECX_G_M.csv

>>> COPY /tmp/5.82/GMJ_IVECC2_G_M.csv /home/grierjones/DDCASPT2/iron_oxo_DDCASPT2/cluster/5.82/GMJ_IVECC2_G_M.csv

>>> COPY /tmp/5.82/GMJ_e2_G_M.csv /home/grierjones/DDCASPT2/iron_oxo_DDCASPT2/cluster/5.82/GMJ_e2_G_M.csv

>>> END FOREACH

>>> END FOREACH

>>> EXPORT i = H

>>> EXPORT j = P

>>> IF (-FILE GMJ_e2_${i}_${j}.csv)

>>> COPY /tmp/5.82/GMJ_RHS_H_P.csv /home/grierjones/DDCASPT2/iron_oxo_DDCASPT2/cluster/5.82/GMJ_RHS_H_P.csv

>>> COPY /tmp/5.82/GMJ_IVECW_H_P.csv /home/grierjones/DDCASPT2/iron_oxo_DDCASPT2/cluster/5.82/GMJ_IVECW_H_P.csv

>>> COPY /tmp/5.82/GMJ_IVECX_H_P.csv /home/grierjones/DDCASPT2/iron_oxo_DDCASPT2/cluster/5.82/GMJ_IVECX_H_P.csv

>>> COPY /tmp/5.82/GMJ_IVECC2_H_P.csv /home/grierjones/DDCASPT2/iron_oxo_DDCASPT2/cluster/5.82/GMJ_IVECC2_H_P.csv

>>> COPY /tmp/5.82/GMJ_e2_H_P.csv /home/grierjones/DDCASPT2/iron_oxo_DDCASPT2/cluster/5.82/GMJ_e2_H_P.csv

>>> END FOREACH

>>> EXPORT j = M

>>> IF (-FILE GMJ_e2_${i}_${j}.csv)

>>> COPY /tmp/5.82/GMJ_RHS_H_M.csv /home/grierjones/DDCASPT2/iron_oxo_DDCASPT2/cluster/5.82/GMJ_RHS_H_M.csv

>>> COPY /tmp/5.82/GMJ_IVECW_H_M.csv /home/grierjones/DDCASPT2/iron_oxo_DDCASPT2/cluster/5.82/GMJ_IVECW_H_M.csv

>>> COPY /tmp/5.82/GMJ_IVECX_H_M.csv /home/grierjones/DDCASPT2/iron_oxo_DDCASPT2/cluster/5.82/GMJ_IVECX_H_M.csv

>>> COPY /tmp/5.82/GMJ_IVECC2_H_M.csv /home/grierjones/DDCASPT2/iron_oxo_DDCASPT2/cluster/5.82/GMJ_IVECC2_H_M.csv

>>> COPY /tmp/5.82/GMJ_e2_H_M.csv /home/grierjones/DDCASPT2/iron_oxo_DDCASPT2/cluster/5.82/GMJ_e2_H_M.csv

>>> END FOREACH

>>> END FOREACH

>>> EXPORT i = A

>>> IF (-FILE GMJ_e2_$i.csv)

>>> COPY /tmp/5.82/GMJ_RHS_A.csv /home/grierjones/DDCASPT2/iron_oxo_DDCASPT2/cluster/5.82/GMJ_RHS_A.csv

>>> COPY /tmp/5.82/GMJ_IVECW_A.csv /home/grierjones/DDCASPT2/iron_oxo_DDCASPT2/cluster/5.82/GMJ_IVECW_A.csv

>>> COPY /tmp/5.82/GMJ_IVECX_A.csv /home/grierjones/DDCASPT2/iron_oxo_DDCASPT2/cluster/5.82/GMJ_IVECX_A.csv

>>> COPY /tmp/5.82/GMJ_IVECC2_A.csv /home/grierjones/DDCASPT2/iron_oxo_DDCASPT2/cluster/5.82/GMJ_IVECC2_A.csv

>>> COPY /tmp/5.82/GMJ_e2_A.csv /home/grierjones/DDCASPT2/iron_oxo_DDCASPT2/cluster/5.82/GMJ_e2_A.csv

>>> END FOREACH

>>> EXPORT i = C

>>> IF (-FILE GMJ_e2_$i.csv)

>>> COPY /tmp/5.82/GMJ_RHS_C.csv /home/grierjones/DDCASPT2/iron_oxo_DDCASPT2/cluster/5.82/GMJ_RHS_C.csv

>>> COPY /tmp/5.82/GMJ_IVECW_C.csv /home/grierjones/DDCASPT2/iron_oxo_DDCASPT2/cluster/5.82/GMJ_IVECW_C.csv

>>> COPY /tmp/5.82/GMJ_IVECX_C.csv /home/grierjones/DDCASPT2/iron_oxo_DDCASPT2/cluster/5.82/GMJ_IVECX_C.csv

>>> COPY /tmp/5.82/GMJ_IVECC2_C.csv /home/grierjones/DDCASPT2/iron_oxo_DDCASPT2/cluster/5.82/GMJ_IVECC2_C.csv

>>> COPY /tmp/5.82/GMJ_e2_C.csv /home/grierjones/DDCASPT2/iron_oxo_DDCASPT2/cluster/5.82/GMJ_e2_C.csv

>>> END FOREACH

>>> EXPORT i = D

>>> IF (-FILE GMJ_e2_$i.csv)

>>> COPY /tmp/5.82/GMJ_RHS_D.csv /home/grierjones/DDCASPT2/iron_oxo_DDCASPT2/cluster/5.82/GMJ_RHS_D.csv

>>> COPY /tmp/5.82/GMJ_IVECW_D.csv /home/grierjones/DDCASPT2/iron_oxo_DDCASPT2/cluster/5.82/GMJ_IVECW_D.csv

>>> COPY /tmp/5.82/GMJ_IVECX_D.csv /home/grierjones/DDCASPT2/iron_oxo_DDCASPT2/cluster/5.82/GMJ_IVECX_D.csv

>>> COPY /tmp/5.82/GMJ_IVECC2_D.csv /home/grierjones/DDCASPT2/iron_oxo_DDCASPT2/cluster/5.82/GMJ_IVECC2_D.csv

>>> COPY /tmp/5.82/GMJ_e2_D.csv /home/grierjones/DDCASPT2/iron_oxo_DDCASPT2/cluster/5.82/GMJ_e2_D.csv

>>> END FOREACH

.########################.
.# Non-zero return code #.
.########################.

    Timing: Wall=406.45 User=402.18 System=4.14
************************************
*** WorkDir at /tmp/5.82 cleaned ***
************************************
