[Molden Format]
[N_Atoms]
                     2
[Atoms] (AU)
O1          1      8           0.00000000      0.00000000      0.00000000
O2          2      8           0.00000000      0.00000000      1.88972612
[Charge] (Mulliken)
 -1.083577672034153E-013
  9.237055564881302E-014
[GTO] (AU)
   1
   s  14
  1.053749500E+05  1.238600013E-04
  1.567924000E+04  5.120100053E-04
  3.534544700E+03  2.152910022E-03
  9.873651600E+02  8.528440089E-03
  3.159787500E+02  3.018049031E-02
  1.116542800E+02  9.099702095E-02
  4.269945100E+01  2.177936423E-01
  1.739559600E+01  3.686245738E-01
  7.438309000E+00  3.366707335E-01
  3.222862000E+00  9.657630101E-02
  1.253877000E+00  2.144520022E-03
  4.951550000E-01  1.194350012E-03
  1.916650000E-01  5.390200056E-04
  6.708300000E-02  2.103400022E-04
   s  14
  1.053749500E+05 -2.815000008E-05
  1.567924000E+04 -1.163000003E-04
  3.534544700E+03 -4.909200013E-04
  9.873651600E+02 -1.946160005E-03
  3.159787500E+02 -7.005300019E-03
  1.116542800E+02 -2.167814006E-02
  4.269945100E+01 -5.641213015E-02
  1.739559600E+01 -1.127053003E-01
  7.438309000E+00 -1.589119704E-01
  3.222862000E+00 -3.355083009E-02
  1.253877000E+00  3.531902810E-01
  4.951550000E-01  5.534199315E-01
  1.916650000E-01  2.301839106E-01
  6.708300000E-02  1.127267003E-02
   p   9
  2.000000000E+02  9.173000030E-04
  4.653336700E+01  7.377140024E-03
  1.462180900E+01  3.483515011E-02
  5.313064000E+00  1.144397004E-01
  2.102525000E+00  2.554966408E-01
  8.502230000E-01  3.722557412E-01
  3.375970000E-01  3.323314911E-01
  1.288920000E-01  1.400847905E-01
  4.511200000E-02  2.395784008E-02
 
   2
   s  14
  1.053749500E+05  1.238600013E-04
  1.567924000E+04  5.120100053E-04
  3.534544700E+03  2.152910022E-03
  9.873651600E+02  8.528440089E-03
  3.159787500E+02  3.018049031E-02
  1.116542800E+02  9.099702095E-02
  4.269945100E+01  2.177936423E-01
  1.739559600E+01  3.686245738E-01
  7.438309000E+00  3.366707335E-01
  3.222862000E+00  9.657630101E-02
  1.253877000E+00  2.144520022E-03
  4.951550000E-01  1.194350012E-03
  1.916650000E-01  5.390200056E-04
  6.708300000E-02  2.103400022E-04
   s  14
  1.053749500E+05 -2.815000008E-05
  1.567924000E+04 -1.163000003E-04
  3.534544700E+03 -4.909200013E-04
  9.873651600E+02 -1.946160005E-03
  3.159787500E+02 -7.005300019E-03
  1.116542800E+02 -2.167814006E-02
  4.269945100E+01 -5.641213015E-02
  1.739559600E+01 -1.127053003E-01
  7.438309000E+00 -1.589119704E-01
  3.222862000E+00 -3.355083009E-02
  1.253877000E+00  3.531902810E-01
  4.951550000E-01  5.534199315E-01
  1.916650000E-01  2.301839106E-01
  6.708300000E-02  1.127267003E-02
   p   9
  2.000000000E+02  9.173000030E-04
  4.653336700E+01  7.377140024E-03
  1.462180900E+01  3.483515011E-02
  5.313064000E+00  1.144397004E-01
  2.102525000E+00  2.554966408E-01
  8.502230000E-01  3.722557412E-01
  3.375970000E-01  3.323314911E-01
  1.288920000E-01  1.400847905E-01
  4.511200000E-02  2.395784008E-02
 
[MO]
Sym=     1a  
Ene=   -20.9470
Spin= Alpha
Occup=    2.00000
   1         0.70682806
   2        -0.00043924
   3        -0.00000000
   4         0.00000000
   5         0.00206510
   6         0.70682806
   7        -0.00043924
   8        -0.00000000
   9         0.00000000
  10        -0.00206510
Sym=     2a  
Ene=   -20.9440
Spin= Alpha
Occup=    2.00000
   1        -0.70762907
   2        -0.00264270
   3        -0.00000000
   4        -0.00000000
   5        -0.00314123
   6         0.70762908
   7         0.00264270
   8         0.00000000
   9         0.00000000
  10        -0.00314123
Sym=     3a  
Ene=    -2.0040
Spin= Alpha
Occup=    2.00000
   1         0.04778078
   2        -0.46213677
   3        -0.00000000
   4         0.00000000
   5        -0.26546500
   6         0.04778078
   7        -0.46213677
   8         0.00000000
   9         0.00000000
  10         0.26546500
Sym=     4a  
Ene=    -1.1065
Spin= Alpha
Occup=    2.00000
   1        -0.01642783
   2        -0.73306625
   3        -0.00000000
   4         0.00000000
   5         0.22629705
   6         0.01642783
   7         0.73306625
   8        -0.00000000
   9        -0.00000000
  10         0.22629705
Sym=     5a  
Ene=    -0.9061
Spin= Alpha
Occup=    2.00000
   1         0.00000000
   2        -0.00000000
   3         0.27922665
   4        -0.54502528
   5         0.00000000
   6        -0.00000000
   7        -0.00000000
   8         0.27922665
   9        -0.54502528
  10        -0.00000000
Sym=     6a  
Ene=    -0.9061
Spin= Alpha
Occup=    2.00000
   1        -0.00000000
   2        -0.00000000
   3        -0.54502528
   4        -0.27922665
   5         0.00000000
   6        -0.00000000
   7        -0.00000000
   8        -0.54502528
   9        -0.27922665
  10        -0.00000000
Sym=     7a  
Ene=    -0.8336
Spin= Alpha
Occup=    2.00000
   1         0.03756391
   2         0.43058233
   3        -0.00000000
   4        -0.00000000
   5        -0.63646584
   6         0.03756391
   7         0.43058233
   8        -0.00000000
   9        -0.00000000
  10         0.63646584
Sym=     8a  
Ene=    -0.2180
Spin= Alpha
Occup=    1.00000
   1         0.00000000
   2        -0.00000000
   3         0.84463298
   4         0.19108856
   5         0.00000000
   6        -0.00000000
   7        -0.00000000
   8        -0.84463298
   9        -0.19108856
  10        -0.00000000
Sym=     9a  
Ene=     0.0000
Spin= Alpha
Occup=    1.00000
   1         0.00000000
   2         0.00000000
   3         0.19108856
   4        -0.84463298
   5         0.00000000
   6        -0.00000000
   7        -0.00000000
   8        -0.19108856
   9         0.84463298
  10         0.00000000
Sym=    10a  
Ene=     0.8895
Spin= Alpha
Occup=    0.00000
   1         0.14765374
   2         1.06736064
   3        -0.00000000
   4         0.00000000
   5         1.07741075
   6        -0.14765374
   7        -1.06736064
   8        -0.00000000
   9        -0.00000000
  10         1.07741075
