[Molden Format]
[N_Atoms]
                     2
[Atoms] (AU)
B1          1      5           0.00000000      0.00000000      0.00000000
B2          2      5           0.00000000      0.00000000      4.72431531
[Charge] (Mulliken)
  9.592326932761353E-014
 -1.092459456231154E-013
[GTO] (AU)
   1
   s  14
  3.336021700E+04  1.039699991E-04
  4.972095200E+03  5.254399956E-04
  1.125641700E+03  2.509059979E-03
  3.164913600E+02  1.031887991E-02
  1.020072600E+02  3.636632969E-02
  3.629587300E+01  1.064607991E-01
  1.397141000E+01  2.403999880E-01
  5.741156000E+00  3.748581168E-01
  2.494268000E+00  3.100066974E-01
  1.114202000E+00  7.922455933E-02
  4.215490000E-01 -4.947589958E-03
  1.696330000E-01 -7.737119935E-03
  6.853500000E-02 -1.501079987E-03
  2.398700000E-02 -1.333299989E-04
   s  14
  3.336021700E+04 -2.030000008E-05
  4.972095200E+03 -1.025700004E-04
  1.125641700E+03 -4.911300020E-04
  3.164913600E+02 -2.026570008E-03
  1.020072600E+02 -7.261010030E-03
  3.629587300E+01 -2.197722009E-02
  1.397141000E+01 -5.408428022E-02
  5.741156000E+00 -1.022402604E-01
  2.494268000E+00 -1.423595206E-01
  1.114202000E+00 -4.658690019E-02
  4.215490000E-01  3.799402916E-01
  1.696330000E-01  5.890463624E-01
  6.853500000E-02  1.749075107E-01
  2.398700000E-02 -1.142030005E-03
   p   9
  5.500000000E+01  1.229800005E-03
  1.336610100E+01  8.827380035E-03
  4.135394000E+00  3.843340015E-02
  1.481256000E+00  1.150031805E-01
  6.021360000E-01  2.733674011E-01
  2.556360000E-01  4.061972116E-01
  1.111510000E-01  3.014967912E-01
  4.764800000E-02  7.684809030E-02
  1.667700000E-02 -8.170000032E-06
 
   2
   s  14
  3.336021700E+04  1.039699991E-04
  4.972095200E+03  5.254399956E-04
  1.125641700E+03  2.509059979E-03
  3.164913600E+02  1.031887991E-02
  1.020072600E+02  3.636632969E-02
  3.629587300E+01  1.064607991E-01
  1.397141000E+01  2.403999880E-01
  5.741156000E+00  3.748581168E-01
  2.494268000E+00  3.100066974E-01
  1.114202000E+00  7.922455933E-02
  4.215490000E-01 -4.947589958E-03
  1.696330000E-01 -7.737119935E-03
  6.853500000E-02 -1.501079987E-03
  2.398700000E-02 -1.333299989E-04
   s  14
  3.336021700E+04 -2.030000008E-05
  4.972095200E+03 -1.025700004E-04
  1.125641700E+03 -4.911300020E-04
  3.164913600E+02 -2.026570008E-03
  1.020072600E+02 -7.261010030E-03
  3.629587300E+01 -2.197722009E-02
  1.397141000E+01 -5.408428022E-02
  5.741156000E+00 -1.022402604E-01
  2.494268000E+00 -1.423595206E-01
  1.114202000E+00 -4.658690019E-02
  4.215490000E-01  3.799402916E-01
  1.696330000E-01  5.890463624E-01
  6.853500000E-02  1.749075107E-01
  2.398700000E-02 -1.142030005E-03
   p   9
  5.500000000E+01  1.229800005E-03
  1.336610100E+01  8.827380035E-03
  4.135394000E+00  3.843340015E-02
  1.481256000E+00  1.150031805E-01
  6.021360000E-01  2.733674011E-01
  2.556360000E-01  4.061972116E-01
  1.111510000E-01  3.014967912E-01
  4.764800000E-02  7.684809030E-02
  1.667700000E-02 -8.170000032E-06
 
[MO]
Sym=     1a  
Ene=    -7.6594
Spin= Alpha
Occup=    1.00000
   1         0.70701786
   2         0.00988802
   3         0.00000000
   4         0.00000000
   5         0.00002558
   6         0.70701770
   7         0.00988802
   8        -0.00000000
   9        -0.00000000
  10        -0.00002558
Sym=     1a  
Ene=    -7.6594
Spin= Beta
Occup=    1.00000
   1         0.70701786
   2         0.00988802
   3         0.00000000
   4         0.00000000
   5         0.00002558
   6         0.70701770
   7         0.00988802
   8        -0.00000000
   9        -0.00000000
  10        -0.00002558
Sym=     2a  
Ene=    -7.6593
Spin= Alpha
Occup=    1.00000
   1        -0.70706458
   2        -0.01014125
   3         0.00000000
   4         0.00000000
   5        -0.00035201
   6         0.70706474
   7         0.01014126
   8        -0.00000000
   9        -0.00000000
  10        -0.00035201
Sym=     2a  
Ene=    -7.6593
Spin= Beta
Occup=    1.00000
   1        -0.70706458
   2        -0.01014125
   3         0.00000000
   4         0.00000000
   5        -0.00035201
   6         0.70706474
   7         0.01014126
   8        -0.00000000
   9        -0.00000000
  10        -0.00035201
Sym=     3a  
Ene=    -0.5483
Spin= Alpha
Occup=    1.00000
   1        -0.01670624
   2         0.64102744
   3         0.00000000
   4        -0.00000000
   5         0.05441577
   6        -0.01670624
   7         0.64102744
   8        -0.00000000
   9         0.00000000
  10        -0.05441577
Sym=     3a  
Ene=    -0.5483
Spin= Beta
Occup=    1.00000
   1        -0.01670624
   2         0.64102744
   3         0.00000000
   4        -0.00000000
   5         0.05441577
   6        -0.01670624
   7         0.64102744
   8        -0.00000000
   9         0.00000000
  10        -0.05441577
Sym=     4a  
Ene=    -0.4306
Spin= Alpha
Occup=    1.00000
   1         0.00498733
   2        -0.74965948
   3        -0.00000000
   4        -0.00000000
   5         0.07203233
   6        -0.00498733
   7         0.74965948
   8         0.00000000
   9        -0.00000000
  10         0.07203233
Sym=     4a  
Ene=    -0.4306
Spin= Beta
Occup=    1.00000
   1         0.00498733
   2        -0.74965948
   3        -0.00000000
   4        -0.00000000
   5         0.07203233
   6        -0.00498733
   7         0.74965948
   8         0.00000000
   9        -0.00000000
  10         0.07203233
Sym=     5a  
Ene=    -0.1950
Spin= Alpha
Occup=    1.00000
   1         0.00000000
   2         0.00000000
   3         0.54852144
   4        -0.38076416
   5        -0.00000000
   6         0.00000000
   7         0.00000000
   8         0.54852144
   9        -0.38076416
  10         0.00000000
Sym=     5a  
Ene=    -0.1950
Spin= Beta
Occup=    1.00000
   1         0.00000000
   2         0.00000000
   3         0.54852144
   4        -0.38076416
   5        -0.00000000
   6         0.00000000
   7         0.00000000
   8         0.54852144
   9        -0.38076416
  10         0.00000000
Sym=     6a  
Ene=     0.0434
Spin= Alpha
Occup=    0.00000
   1         0.01171285
   2         0.19281959
   3        -0.00000000
   4         0.00000000
   5        -0.64350051
   6         0.01171285
   7         0.19281959
   8        -0.00000000
   9         0.00000000
  10         0.64350051
Sym=     6a  
Ene=     0.0434
Spin= Beta
Occup=    0.00000
   1         0.01171285
   2         0.19281959
   3        -0.00000000
   4         0.00000000
   5        -0.64350051
   6         0.01171285
   7         0.19281959
   8        -0.00000000
   9         0.00000000
  10         0.64350051
Sym=     7a  
Ene=     0.0678
Spin= Alpha
Occup=    0.00000
   1         0.00000000
   2         0.00000000
   3        -0.61971774
   4         0.43018611
   5         0.00000000
   6        -0.00000000
   7        -0.00000000
   8         0.61971774
   9        -0.43018611
  10         0.00000000
Sym=     7a  
Ene=     0.0678
Spin= Beta
Occup=    0.00000
   1         0.00000000
   2         0.00000000
   3        -0.61971774
   4         0.43018611
   5         0.00000000
   6        -0.00000000
   7        -0.00000000
   8         0.61971774
   9        -0.43018611
  10         0.00000000
Sym=     8a  
Ene=     0.0734
Spin= Alpha
Occup=    0.00000
   1        -0.00000000
   2        -0.00000000
   3         0.38076416
   4         0.54852144
   5         0.00000000
   6        -0.00000000
   7         0.00000000
   8         0.38076416
   9         0.54852144
  10        -0.00000000
Sym=     8a  
Ene=     0.0734
Spin= Beta
Occup=    0.00000
   1        -0.00000000
   2        -0.00000000
   3         0.38076416
   4         0.54852144
   5         0.00000000
   6        -0.00000000
   7         0.00000000
   8         0.38076416
   9         0.54852144
  10        -0.00000000
Sym=     9a  
Ene=     0.1487
Spin= Alpha
Occup=    0.00000
   1         0.00000000
   2         0.00000000
   3        -0.43018611
   4        -0.61971774
   5        -0.00000000
   6         0.00000000
   7        -0.00000000
   8         0.43018611
   9         0.61971774
  10         0.00000000
Sym=     9a  
Ene=     0.1487
Spin= Beta
Occup=    0.00000
   1         0.00000000
   2         0.00000000
   3        -0.43018611
   4        -0.61971774
   5        -0.00000000
   6         0.00000000
   7        -0.00000000
   8         0.43018611
   9         0.61971774
  10         0.00000000
Sym=    10a  
Ene=     0.2595
Spin= Alpha
Occup=    0.00000
   1         0.02014802
   2         0.32155458
   3         0.00000000
   4         0.00000000
   5         0.85939915
   6        -0.02014802
   7        -0.32155458
   8        -0.00000000
   9         0.00000000
  10         0.85939915
Sym=    10a  
Ene=     0.2595
Spin= Beta
Occup=    0.00000
   1         0.02014802
   2         0.32155458
   3         0.00000000
   4         0.00000000
   5         0.85939915
   6        -0.02014802
   7        -0.32155458
   8        -0.00000000
   9         0.00000000
  10         0.85939915
