[Molden Format]
[N_Atoms]
                     2
[Atoms] (AU)
B1          1      5           0.00000000      0.00000000      0.00000000
B2          2      5           0.00000000      0.00000000      4.72431531
[Charge] (Mulliken)
  0.000000000000000E+000
  0.000000000000000E+000
[GTO] (AU)
   1
   s  14
  3.336021700E+04  1.039699991E-04
  4.972095200E+03  5.254399956E-04
  1.125641700E+03  2.509059979E-03
  3.164913600E+02  1.031887991E-02
  1.020072600E+02  3.636632969E-02
  3.629587300E+01  1.064607991E-01
  1.397141000E+01  2.403999880E-01
  5.741156000E+00  3.748581168E-01
  2.494268000E+00  3.100066974E-01
  1.114202000E+00  7.922455933E-02
  4.215490000E-01 -4.947589958E-03
  1.696330000E-01 -7.737119935E-03
  6.853500000E-02 -1.501079987E-03
  2.398700000E-02 -1.333299989E-04
   s  14
  3.336021700E+04 -2.030000008E-05
  4.972095200E+03 -1.025700004E-04
  1.125641700E+03 -4.911300020E-04
  3.164913600E+02 -2.026570008E-03
  1.020072600E+02 -7.261010030E-03
  3.629587300E+01 -2.197722009E-02
  1.397141000E+01 -5.408428022E-02
  5.741156000E+00 -1.022402604E-01
  2.494268000E+00 -1.423595206E-01
  1.114202000E+00 -4.658690019E-02
  4.215490000E-01  3.799402916E-01
  1.696330000E-01  5.890463624E-01
  6.853500000E-02  1.749075107E-01
  2.398700000E-02 -1.142030005E-03
   p   9
  5.500000000E+01  1.229800005E-03
  1.336610100E+01  8.827380035E-03
  4.135394000E+00  3.843340015E-02
  1.481256000E+00  1.150031805E-01
  6.021360000E-01  2.733674011E-01
  2.556360000E-01  4.061972116E-01
  1.111510000E-01  3.014967912E-01
  4.764800000E-02  7.684809030E-02
  1.667700000E-02 -8.170000032E-06
 
   2
   s  14
  3.336021700E+04  1.039699991E-04
  4.972095200E+03  5.254399956E-04
  1.125641700E+03  2.509059979E-03
  3.164913600E+02  1.031887991E-02
  1.020072600E+02  3.636632969E-02
  3.629587300E+01  1.064607991E-01
  1.397141000E+01  2.403999880E-01
  5.741156000E+00  3.748581168E-01
  2.494268000E+00  3.100066974E-01
  1.114202000E+00  7.922455933E-02
  4.215490000E-01 -4.947589958E-03
  1.696330000E-01 -7.737119935E-03
  6.853500000E-02 -1.501079987E-03
  2.398700000E-02 -1.333299989E-04
   s  14
  3.336021700E+04 -2.030000008E-05
  4.972095200E+03 -1.025700004E-04
  1.125641700E+03 -4.911300020E-04
  3.164913600E+02 -2.026570008E-03
  1.020072600E+02 -7.261010030E-03
  3.629587300E+01 -2.197722009E-02
  1.397141000E+01 -5.408428022E-02
  5.741156000E+00 -1.022402604E-01
  2.494268000E+00 -1.423595206E-01
  1.114202000E+00 -4.658690019E-02
  4.215490000E-01  3.799402916E-01
  1.696330000E-01  5.890463624E-01
  6.853500000E-02  1.749075107E-01
  2.398700000E-02 -1.142030005E-03
   p   9
  5.500000000E+01  1.229800005E-03
  1.336610100E+01  8.827380035E-03
  4.135394000E+00  3.843340015E-02
  1.481256000E+00  1.150031805E-01
  6.021360000E-01  2.733674011E-01
  2.556360000E-01  4.061972116E-01
  1.111510000E-01  3.014967912E-01
  4.764800000E-02  7.684809030E-02
  1.667700000E-02 -8.170000032E-06
 
[MO]
Sym=     1a  
Ene=    -7.6979
Spin= Alpha
Occup=    2.00000
   1        -0.70702257
   2         0.00035396
   3        -0.00000000
   4         0.00000000
   5         0.00063910
   6         0.70702257
   7        -0.00035396
   8         0.00000000
   9        -0.00000000
  10         0.00063910
Sym=     2a  
Ene=    -7.6950
Spin= Alpha
Occup=    2.00000
   1         0.70715621
   2         0.00038482
   3        -0.00000000
   4        -0.00000000
   5         0.00066106
   6         0.70715621
   7         0.00038482
   8         0.00000000
   9         0.00000000
  10        -0.00066106
Sym=     3a  
Ene=    -0.6179
Spin= Alpha
Occup=    2.00000
   1        -0.00948730
   2         0.58166485
   3        -0.00000000
   4         0.00000000
   5         0.19708960
   6        -0.00948730
   7         0.58166485
   8        -0.00000000
   9        -0.00000000
  10        -0.19708960
Sym=     4a  
Ene=    -0.4556
Spin= Alpha
Occup=    2.00000
   1        -0.00001432
   2        -0.67479263
   3        -0.00000000
   4         0.00000000
   5         0.23432709
   6         0.00001432
   7         0.67479263
   8        -0.00000000
   9        -0.00000000
  10         0.23432709
Sym=     5a  
Ene=    -0.3487
Spin= Alpha
Occup=    0.66667
   1         0.00000000
   2         0.00000000
   3         0.54852144
   4        -0.38076416
   5        -0.00000000
   6         0.00000000
   7         0.00000000
   8         0.54852144
   9        -0.38076416
  10         0.00000000
Sym=     6a  
Ene=    -0.3487
Spin= Alpha
Occup=    0.66667
   1        -0.00000000
   2        -0.00000000
   3         0.38076416
   4         0.54852144
   5         0.00000000
   6        -0.00000000
   7        -0.00000000
   8         0.38076416
   9         0.54852144
  10        -0.00000000
Sym=     7a  
Ene=    -0.3475
Spin= Alpha
Occup=    0.66667
   1         0.01142438
   2         0.33145016
   3        -0.00000000
   4         0.00000000
   5        -0.61498719
   6         0.01142438
   7         0.33145016
   8        -0.00000000
   9         0.00000000
  10         0.61498719
Sym=     8a  
Ene=    -0.2732
Spin= Alpha
Occup=    0.00000
   1        -0.00000000
   2         0.00000000
   3        -0.62097456
   4        -0.42836989
   5        -0.00000000
   6         0.00000000
   7         0.00000000
   8         0.62097456
   9         0.42836989
  10         0.00000000
Sym=     9a  
Ene=    -0.2732
Spin= Alpha
Occup=    0.00000
   1        -0.00000000
   2        -0.00000000
   3         0.42836989
   4        -0.62097456
   5        -0.00000000
   6         0.00000000
   7         0.00000000
   8        -0.42836989
   9         0.62097456
  10        -0.00000000
Sym=    10a  
Ene=    -0.1893
Spin= Alpha
Occup=    0.00000
   1         0.02214370
   2         0.45841499
   3         0.00000000
   4        -0.00000000
   5         0.82996752
   6        -0.02214370
   7        -0.45841499
   8        -0.00000000
   9         0.00000000
  10         0.82996752
