[Molden Format]
[N_Atoms]
                     2
[Atoms] (AU)
B1          1      5           0.00000000      0.00000000      0.00000000
B2          2      5           0.00000000      0.00000000      4.72431531
[Charge] (Mulliken)
  0.999999999999456     
   1.00000000000054     
[GTO] (AU)
   1
   s  14
  3.336021700E+04  1.039699991E-04
  4.972095200E+03  5.254399956E-04
  1.125641700E+03  2.509059979E-03
  3.164913600E+02  1.031887991E-02
  1.020072600E+02  3.636632969E-02
  3.629587300E+01  1.064607991E-01
  1.397141000E+01  2.403999880E-01
  5.741156000E+00  3.748581168E-01
  2.494268000E+00  3.100066974E-01
  1.114202000E+00  7.922455933E-02
  4.215490000E-01 -4.947589958E-03
  1.696330000E-01 -7.737119935E-03
  6.853500000E-02 -1.501079987E-03
  2.398700000E-02 -1.333299989E-04
   s  14
  3.336021700E+04 -2.030000008E-05
  4.972095200E+03 -1.025700004E-04
  1.125641700E+03 -4.911300020E-04
  3.164913600E+02 -2.026570008E-03
  1.020072600E+02 -7.261010030E-03
  3.629587300E+01 -2.197722009E-02
  1.397141000E+01 -5.408428022E-02
  5.741156000E+00 -1.022402604E-01
  2.494268000E+00 -1.423595206E-01
  1.114202000E+00 -4.658690019E-02
  4.215490000E-01  3.799402916E-01
  1.696330000E-01  5.890463624E-01
  6.853500000E-02  1.749075107E-01
  2.398700000E-02 -1.142030005E-03
   p   9
  5.500000000E+01  1.229800005E-03
  1.336610100E+01  8.827380035E-03
  4.135394000E+00  3.843340015E-02
  1.481256000E+00  1.150031805E-01
  6.021360000E-01  2.733674011E-01
  2.556360000E-01  4.061972116E-01
  1.111510000E-01  3.014967912E-01
  4.764800000E-02  7.684809030E-02
  1.667700000E-02 -8.170000032E-06
 
   2
   s  14
  3.336021700E+04  1.039699991E-04
  4.972095200E+03  5.254399956E-04
  1.125641700E+03  2.509059979E-03
  3.164913600E+02  1.031887991E-02
  1.020072600E+02  3.636632969E-02
  3.629587300E+01  1.064607991E-01
  1.397141000E+01  2.403999880E-01
  5.741156000E+00  3.748581168E-01
  2.494268000E+00  3.100066974E-01
  1.114202000E+00  7.922455933E-02
  4.215490000E-01 -4.947589958E-03
  1.696330000E-01 -7.737119935E-03
  6.853500000E-02 -1.501079987E-03
  2.398700000E-02 -1.333299989E-04
   s  14
  3.336021700E+04 -2.030000008E-05
  4.972095200E+03 -1.025700004E-04
  1.125641700E+03 -4.911300020E-04
  3.164913600E+02 -2.026570008E-03
  1.020072600E+02 -7.261010030E-03
  3.629587300E+01 -2.197722009E-02
  1.397141000E+01 -5.408428022E-02
  5.741156000E+00 -1.022402604E-01
  2.494268000E+00 -1.423595206E-01
  1.114202000E+00 -4.658690019E-02
  4.215490000E-01  3.799402916E-01
  1.696330000E-01  5.890463624E-01
  6.853500000E-02  1.749075107E-01
  2.398700000E-02 -1.142030005E-03
   p   9
  5.500000000E+01  1.229800005E-03
  1.336610100E+01  8.827380035E-03
  4.135394000E+00  3.843340015E-02
  1.481256000E+00  1.150031805E-01
  6.021360000E-01  2.733674011E-01
  2.556360000E-01  4.061972116E-01
  1.111510000E-01  3.014967912E-01
  4.764800000E-02  7.684809030E-02
  1.667700000E-02 -8.170000032E-06
 
[MO]
Sym=     1a  
Ene=    -8.5121
Spin= Alpha
Occup=    2.00000
   1         0.70703928
   2         0.00951283
   3         0.00000000
   4        -0.00000000
   5        -0.00048232
   6         0.70703916
   7         0.00951282
   8        -0.00000000
   9        -0.00000000
  10         0.00048232
Sym=     2a  
Ene=    -8.5120
Spin= Alpha
Occup=    2.00000
   1        -0.70704016
   2        -0.00921156
   3         0.00000000
   4        -0.00000000
   5         0.00075052
   6         0.70704029
   7         0.00921157
   8        -0.00000000
   9         0.00000000
  10         0.00075052
Sym=     3a  
Ene=    -1.0903
Spin= Alpha
Occup=    2.00000
   1        -0.01777460
   2         0.60013940
   3         0.00000000
   4         0.00000000
   5         0.16047123
   6        -0.01777460
   7         0.60013940
   8        -0.00000000
   9         0.00000000
  10        -0.16047123
Sym=     4a  
Ene=    -0.6492
Spin= Alpha
Occup=    1.00000
   1        -0.00000000
   2         0.00000000
   3         0.66241854
   4         0.08401669
   5        -0.00000000
   6         0.00000000
   7        -0.00000000
   8         0.66241854
   9         0.08401669
  10        -0.00000000
Sym=     5a  
Ene=    -0.0000
Spin= Alpha
Occup=    1.00000
   1        -0.00000000
   2         0.00000000
   3         0.08401669
   4        -0.66241854
   5        -0.00000000
   6         0.00000000
   7        -0.00000000
   8         0.08401669
   9        -0.66241854
  10        -0.00000000
Sym=     6a  
Ene=    -0.7498
Spin= Alpha
Occup=    0.00000
   1         0.00441344
   2        -0.75122726
   3         0.00000000
   4        -0.00000000
   5         0.06783500
   6        -0.00441344
   7         0.75122726
   8         0.00000000
   9        -0.00000000
  10         0.06783500
Sym=     7a  
Ene=    -0.5472
Spin= Alpha
Occup=    0.00000
   1         0.00836857
   2         0.29653929
   3         0.00000000
   4        -0.00000000
   5        -0.62554196
   6         0.00836857
   7         0.29653929
   8        -0.00000000
   9        -0.00000000
  10         0.62554196
Sym=     8a  
Ene=    -0.4921
Spin= Alpha
Occup=    0.00000
   1         0.00000000
   2         0.00000000
   3         0.13229542
   4        -0.74270323
   5         0.00000000
   6        -0.00000000
   7        -0.00000000
   8        -0.13229542
   9         0.74270323
  10         0.00000000
Sym=     9a  
Ene=    -0.4921
Spin= Alpha
Occup=    0.00000
   1        -0.00000000
   2        -0.00000000
   3         0.74270323
   4         0.13229542
   5         0.00000000
   6        -0.00000000
   7        -0.00000000
   8        -0.74270323
   9        -0.13229542
  10        -0.00000000
Sym=    10a  
Ene=    -0.3716
Spin= Alpha
Occup=    0.00000
   1        -0.02111637
   2        -0.31790294
   3        -0.00000000
   4        -0.00000000
   5        -0.85974038
   6         0.02111637
   7         0.31790294
   8        -0.00000000
   9         0.00000000
  10        -0.85974038
