[Molden Format]
[N_Atoms]
                     2
[Atoms] (AU)
B1          1      5           0.00000000      0.00000000      0.00000000
B2          2      5           0.00000000      0.00000000      4.72431531
[Charge] (Mulliken)
  4.239093419764473E-003
 -4.239093419785789E-003
[GTO] (AU)
   1
   s  14
  3.336021700E+04  1.039699991E-04
  4.972095200E+03  5.254399956E-04
  1.125641700E+03  2.509059979E-03
  3.164913600E+02  1.031887991E-02
  1.020072600E+02  3.636632969E-02
  3.629587300E+01  1.064607991E-01
  1.397141000E+01  2.403999880E-01
  5.741156000E+00  3.748581168E-01
  2.494268000E+00  3.100066974E-01
  1.114202000E+00  7.922455933E-02
  4.215490000E-01 -4.947589958E-03
  1.696330000E-01 -7.737119935E-03
  6.853500000E-02 -1.501079987E-03
  2.398700000E-02 -1.333299989E-04
   s  14
  3.336021700E+04 -2.030000008E-05
  4.972095200E+03 -1.025700004E-04
  1.125641700E+03 -4.911300020E-04
  3.164913600E+02 -2.026570008E-03
  1.020072600E+02 -7.261010030E-03
  3.629587300E+01 -2.197722009E-02
  1.397141000E+01 -5.408428022E-02
  5.741156000E+00 -1.022402604E-01
  2.494268000E+00 -1.423595206E-01
  1.114202000E+00 -4.658690019E-02
  4.215490000E-01  3.799402916E-01
  1.696330000E-01  5.890463624E-01
  6.853500000E-02  1.749075107E-01
  2.398700000E-02 -1.142030005E-03
   p   9
  5.500000000E+01  1.229800005E-03
  1.336610100E+01  8.827380035E-03
  4.135394000E+00  3.843340015E-02
  1.481256000E+00  1.150031805E-01
  6.021360000E-01  2.733674011E-01
  2.556360000E-01  4.061972116E-01
  1.111510000E-01  3.014967912E-01
  4.764800000E-02  7.684809030E-02
  1.667700000E-02 -8.170000032E-06
 
   2
   s  14
  3.336021700E+04  1.039699991E-04
  4.972095200E+03  5.254399956E-04
  1.125641700E+03  2.509059979E-03
  3.164913600E+02  1.031887991E-02
  1.020072600E+02  3.636632969E-02
  3.629587300E+01  1.064607991E-01
  1.397141000E+01  2.403999880E-01
  5.741156000E+00  3.748581168E-01
  2.494268000E+00  3.100066974E-01
  1.114202000E+00  7.922455933E-02
  4.215490000E-01 -4.947589958E-03
  1.696330000E-01 -7.737119935E-03
  6.853500000E-02 -1.501079987E-03
  2.398700000E-02 -1.333299989E-04
   s  14
  3.336021700E+04 -2.030000008E-05
  4.972095200E+03 -1.025700004E-04
  1.125641700E+03 -4.911300020E-04
  3.164913600E+02 -2.026570008E-03
  1.020072600E+02 -7.261010030E-03
  3.629587300E+01 -2.197722009E-02
  1.397141000E+01 -5.408428022E-02
  5.741156000E+00 -1.022402604E-01
  2.494268000E+00 -1.423595206E-01
  1.114202000E+00 -4.658690019E-02
  4.215490000E-01  3.799402916E-01
  1.696330000E-01  5.890463624E-01
  6.853500000E-02  1.749075107E-01
  2.398700000E-02 -1.142030005E-03
   p   9
  5.500000000E+01  1.229800005E-03
  1.336610100E+01  8.827380035E-03
  4.135394000E+00  3.843340015E-02
  1.481256000E+00  1.150031805E-01
  6.021360000E-01  2.733674011E-01
  2.556360000E-01  4.061972116E-01
  1.111510000E-01  3.014967912E-01
  4.764800000E-02  7.684809030E-02
  1.667700000E-02 -8.170000032E-06
 
[MO]
Sym=     1a  
Ene=    -7.6615
Spin= Alpha
Occup=    2.00000
   1         0.99998298
   2         0.00334542
   3         0.00000000
   4         0.00000000
   5         0.00050060
   6         0.00675352
   7         0.00159912
   8         0.00000000
   9         0.00000000
  10         0.00112389
Sym=     2a  
Ene=    -7.6570
Spin= Alpha
Occup=    2.00000
   1        -0.00674301
   2        -0.00024939
   3        -0.00000000
   4         0.00000000
   5        -0.00023117
   6         0.99988449
   7         0.01417938
   8        -0.00000000
   9        -0.00000000
  10        -0.00024042
Sym=     3a  
Ene=    -0.4986
Spin= Alpha
Occup=    2.00000
   1        -0.00955563
   2         0.00777278
   3         0.00000000
   4         0.00000000
   5         0.08897052
   6        -0.01603191
   7         0.97278270
   8         0.00000000
   9        -0.00000000
  10         0.00192245
Sym=     4a  
Ene=    -0.1948
Spin= Alpha
Occup=    2.00000
   1        -0.00000000
   2         0.00000000
   3        -0.08329709
   4         0.65674495
   5        -0.00000000
   6         0.00000000
   7         0.00000000
   8        -0.08473150
   9         0.66805431
  10         0.00000000
Sym=     5a  
Ene=     0.0951
Spin= Alpha
Occup=    0.06817
   1        -0.00000000
   2        -0.00000000
   3         0.99408201
   4         0.12608265
   5        -0.00000000
   6         0.00000000
   7         0.00000000
   8        -0.01804490
   9        -0.00228869
  10         0.00000000
Sym=     6a  
Ene=    -0.0002
Spin= Alpha
Occup=    1.93183
   1         0.00341720
   2        -0.98980304
   3         0.00000000
   4         0.00000000
   5         0.02095113
   6         0.00687863
   7         0.16177741
   8         0.00000000
   9         0.00000000
  10         0.07985232
Sym=     7a  
Ene=     0.0444
Spin= Alpha
Occup=    0.00000
   1         0.01171819
   2         0.18299280
   3        -0.00000000
   4        -0.00000000
   5        -0.64668313
   6         0.01178836
   7         0.19836741
   8        -0.00000000
   9        -0.00000000
  10         0.64061499
Sym=     8a  
Ene=     0.0680
Spin= Alpha
Occup=    0.00000
   1         0.00000000
   2         0.00000000
   3         0.09555388
   4        -0.75338199
   5        -0.00000000
   6         0.00000000
   7         0.00000000
   8        -0.09428427
   9         0.74337190
  10         0.00000000
Sym=     9a  
Ene=     0.1153
Spin= Alpha
Occup=    0.00000
   1         0.00000000
   2         0.00000000
   3        -0.10343743
   4        -0.01311931
   5        -0.00000000
   6         0.00000000
   7         0.00000000
   8         0.99928611
   9         0.12674270
  10         0.00000000
Sym=    10a  
Ene=     0.2594
Spin= Alpha
Occup=    0.00000
   1        -0.02024712
   2        -0.31688292
   3        -0.00000000
   4        -0.00000000
   5        -0.85688715
   6         0.02009391
   7         0.31882834
   8         0.00000000
   9         0.00000000
  10        -0.86257793
