[Molden Format]
[N_Atoms]
                     2
[Atoms] (AU)
C1          1      6           0.00000000      0.00000000      0.00000000
O2          2      8           0.00000000      0.00000000      2.26767135
[Charge] (Mulliken)
  0.416707724340530     
 -0.416707724340563     
[GTO] (AU)
   1
   s  14
  5.055750100E+04  1.128874000E-04
  7.524785600E+03  5.295373000E-04
  1.694327600E+03  2.450038300E-03
  4.728227900E+02  1.005398470E-02
  1.517107500E+02  3.545398060E-02
  5.391874600E+01  1.044071086E-01
  2.065931100E+01  2.412894918E-01
  8.383976000E+00  3.834225483E-01
  3.577015000E+00  3.078514393E-01
  1.547118000E+00  6.872442990E-02
  6.130130000E-01  2.224445000E-04
  2.460680000E-01  1.976748900E-03
  9.908700000E-02  2.057859400E-03
  3.468000000E-02  4.182020000E-04
   s  14
  5.055750100E+04 -2.507420000E-05
  7.524785600E+03 -1.175945000E-04
  1.694327600E+03 -5.456275000E-04
  4.728227900E+02 -2.245077100E-03
  1.517107500E+02 -8.043471800E-03
  5.391874600E+01 -2.442588710E-02
  2.065931100E+01 -6.136791180E-02
  8.383976000E+00 -1.177767835E-01
  3.577015000E+00 -1.550487783E-01
  1.547118000E+00 -1.933316860E-02
  6.130130000E-01  3.996930678E-01
  2.460680000E-01  5.589420949E-01
  9.908700000E-02  1.711195023E-01
  3.468000000E-02  7.456244600E-03
   p   9
  8.333315500E+01  1.344656000E-03
  1.955761100E+01  1.023555500E-02
  6.080365000E+00  4.520067100E-02
  2.179317000E+00  1.410756198E-01
  8.651500000E-01  3.047388085E-01
  3.619440000E-01  3.995281011E-01
  1.547400000E-01  2.719163432E-01
  6.542900000E-02  5.857669330E-02
  2.290000000E-02 -1.263813000E-04
 
   2
   s  14
  1.053749500E+05  1.238600013E-04
  1.567924000E+04  5.120100053E-04
  3.534544700E+03  2.152910022E-03
  9.873651600E+02  8.528440089E-03
  3.159787500E+02  3.018049031E-02
  1.116542800E+02  9.099702095E-02
  4.269945100E+01  2.177936423E-01
  1.739559600E+01  3.686245738E-01
  7.438309000E+00  3.366707335E-01
  3.222862000E+00  9.657630101E-02
  1.253877000E+00  2.144520022E-03
  4.951550000E-01  1.194350012E-03
  1.916650000E-01  5.390200056E-04
  6.708300000E-02  2.103400022E-04
   s  14
  1.053749500E+05 -2.815000008E-05
  1.567924000E+04 -1.163000003E-04
  3.534544700E+03 -4.909200013E-04
  9.873651600E+02 -1.946160005E-03
  3.159787500E+02 -7.005300019E-03
  1.116542800E+02 -2.167814006E-02
  4.269945100E+01 -5.641213015E-02
  1.739559600E+01 -1.127053003E-01
  7.438309000E+00 -1.589119704E-01
  3.222862000E+00 -3.355083009E-02
  1.253877000E+00  3.531902810E-01
  4.951550000E-01  5.534199315E-01
  1.916650000E-01  2.301839106E-01
  6.708300000E-02  1.127267003E-02
   p   9
  2.000000000E+02  9.173000030E-04
  4.653336700E+01  7.377140024E-03
  1.462180900E+01  3.483515011E-02
  5.313064000E+00  1.144397004E-01
  2.102525000E+00  2.554966408E-01
  8.502230000E-01  3.722557412E-01
  3.375970000E-01  3.323314911E-01
  1.288920000E-01  1.400847905E-01
  4.511200000E-02  2.395784008E-02
 
[MO]
Sym=     1a  
Ene=   -20.7460
Spin= Alpha
Occup=    2.00000
   1        -0.00021874
   2         0.00000635
   3         0.00000000
   4         0.00000000
   5        -0.00137246
   6         1.00010145
   7         0.00078092
   8        -0.00000000
   9        -0.00000000
  10        -0.00236916
Sym=     2a  
Ene=   -11.5270
Spin= Alpha
Occup=    2.00000
   1         0.99967223
   2        -0.01627144
   3        -0.00000000
   4         0.00000000
   5         0.00925798
   6        -0.00040321
   7         0.00271001
   8        -0.00000000
   9        -0.00000000
  10        -0.00035673
Sym=     3a  
Ene=    -1.5319
Spin= Alpha
Occup=    2.00000
   1        -0.05569686
   2         0.13209461
   3        -0.00000000
   4        -0.00000000
   5         0.20802799
   6        -0.02222180
   7         0.78260413
   8        -0.00000000
   9         0.00000000
  10        -0.22318667
Sym=     4a  
Ene=    -0.7224
Spin= Alpha
Occup=    2.00000
   1         0.04900717
   2         0.04759931
   3         0.00000000
   4         0.00000000
   5        -0.41239618
   6         0.03056474
   7         0.52007501
   8         0.00000000
   9         0.00000000
  10         0.79055983
Sym=     5a  
Ene=    -0.6527
Spin= Alpha
Occup=    2.00000
   1        -0.00000000
   2        -0.00000000
   3         0.36084738
   4        -0.07892332
   5         0.00000000
   6         0.00000000
   7         0.00000000
   8         0.80594646
   9        -0.17627389
  10        -0.00000000
Sym=     6a  
Ene=    -0.6488
Spin= Alpha
Occup=    2.00000
   1        -0.00000000
   2        -0.00000000
   3         0.08324548
   4         0.38060885
   5         0.00000000
   6        -0.00000000
   7        -0.00000000
   8         0.17337543
   9         0.79269433
  10        -0.00000000
Sym=     7a  
Ene=    -0.6766
Spin= Alpha
Occup=    1.97916
   1        -0.02997636
   2        -0.92818402
   3        -0.00000000
   4        -0.00000000
   5         0.40357329
   6         0.01136672
   7         0.25613026
   8        -0.00000000
   9        -0.00000000
  10         0.00191427
Sym=     8a  
Ene=     0.0000
Spin= Alpha
Occup=    0.02084
   1         0.00000000
   2         0.00000000
   3        -0.95845278
   4         0.20962956
   5         0.00000000
   6        -0.00000000
   7        -0.00000000
   8         0.63189625
   9        -0.13820621
  10         0.00000000
Sym=     9a  
Ene=     0.1073
Spin= Alpha
Occup=    0.00000
   1         0.00000000
   2         0.00000000
   3        -0.20795103
   4        -0.95077835
   5        -0.00000000
   6         0.00000000
   7         0.00000000
   8         0.14182525
   9         0.64844296
  10         0.00000000
Sym=    10a  
Ene=     0.6786
Spin= Alpha
Occup=    0.00000
   1        -0.12549886
   2        -0.92787239
   3        -0.00000000
   4        -0.00000000
   5        -1.13623147
   6         0.12589757
   7         0.98580221
   8        -0.00000000
   9        -0.00000000
  10        -0.90470738
