   This run of MOLCAS is using the pymolcas driver

                             OPE
                             OPE          NMOL  CASOP  ENMOLC A   SO
                 OPE        NMOLC        AS  OP EN  MO LC     AS  OP
                OPENM       OL CA        SO  PE NM  OL CA     SOP EN
                OP EN      MO   LC       AS  OP ENMOL  CASO   PENMOL
                OP  EN     MO   LC       AS  OP EN     MO     LC ASO
               OP   E  NMOL  C  AS       OP  EN MO     LC     AS  OP
               OP  E   NMO   LC AS        OPEN  MO     LCASOP EN   M
               O  PEN   MO  LCA  SO
            OPE   NMO   L   CAS    OP
        OPENMOL  CASOP     ENMOL   CASOPE
     OPENMOLCA   SOPENMOLCASOPEN   MOLCASOPE
    OPENMOLCAS   OP           EN   MOL    CAS
    OPENMOLCAS       OP  ENM        O     LCA
    OPENMOLCAS    OPEN  MOLCASO     P  E  NMO
    OPENMOLCAS     OP               E  N  MOL
    OPENMOLCA   SO           PENM   O  L  CAS    OPEN    MO    LCAS
    OPENMOLCA   SOP           ENM   O  L  CAS   OP  EN  MOLC  AS   O
    OPENMOLCA   SOPE           NM      O  LCA   S      OP  EN MO
    OPENMOLC                AS         O  PEN   M      OL  CA  SOPE
    OPENMO        LCASOPE  NMOL        C  ASO   P      ENMOLC     AS
    OPE     NMO      LCA  SO     P     E   NM   OL  CA SO  PE N   MO
          OPENMOLCA            SOPE   NMO        LCAS  O    P  ENMO
     OPENMOLCASOPENMOLCASOPENMOLCASOPENMOLCA
        OPENMOLCASOPENMOLCASOPENMOLCASOPE
            OPENMOLCASOPENMOLCASOPENM
               OPENMOLCASOPENMOLCA        version: 1d1d16313-dirty
                   OPENMOLCASO
                       OPE                tag:

 OpenMolcas is free software; you can redistribute it and/or modify it
 under the terms of the GNU Lesser General Public License version 2.1.
 OpenMolcas is distributed in the hope that it will be useful, but it
 is provided "as is" and without any express or implied warranties.
 For more details see the full text of the license in the file
 LICENSE or in <http://www.gnu.org/licenses/>.

                 Copyright (C) The OpenMolcas Authors
           For the author list and the recommended citation,
                   consult the file CONTRIBUTORS.md

           *************************************************
           * pymolcas version py2.28                       *
           *   build c4a6d18ded8cb6cad61d2372a9abd97c      *
           *   (after the EMIL interpreter by V. Veryazov) *
           *************************************************

configuration info
------------------
C Compiler ID: IntelLLVM
C flags: -std=gnu99
Fortran Compiler ID: IntelLLVM
Fortran flags: -standard-semantics -fltconsistency -fpp -i8 -heap-arrays
Definitions: _MOLCAS_;_I8_;_LINUX_
Parallel: OFF (GA=OFF)


   ------------------------------------------------------------------------------
  |
  |              Project: ozone_155.75
  |       Submitted from: /home/grierjones/DDCASPT2/ozone/ANO-RCC-MB/ozone_155.75
  |         Scratch area: /tmp/ozone_155.75
  |      Save outputs to: /home/grierjones/DDCASPT2/ozone/ANO-RCC-MB/ozone_155.75
  |               Molcas: /home/grierjones/Test/build
  |
  | Scratch area is empty
  |
  |       MOLCAS_DRIVER = /usr/local/pymolcas
  | MOLCAS_KEEP_WORKDIR = NO
  |  MOLCAS_NEW_WORKDIR = YES
  |       MOLCAS_NPROCS = 1
  |        MOLCAS_PRINT = NORMAL
  |       MOLCAS_SOURCE = /home/grierjones/Test
  |    MOLCAS_STRUCTURE = 0
  |
   ------------------------------------------------------------------------------

++ ---------   Input file   ---------

&GATEWAY
coord=ozone_155.75.xyz
Basis = ANO-RCC-MB
Group = nosymm
Expert
End of Input

&SEWARD
End of Input

&SCF

>>> COPY $WorkDir/ozone_155.75.scf.h5 $CurrDir/

&RASSCF
Title= RASSCF
FileOrb
/home/grierjones/DDCASPT2/ozone/ANO-RCC-MB/ozone_155.50/ozone_155.50.RasOrb
NACTEL
4 0 0
Inactive
10
RAS2
3
Symmetry
1
Spin
1
orblisting
all
ITERation
300 200

>>> COPY $WorkDir/ozone_155.75.rasscf.h5 $CurrDir/

>>> COPY $WorkDir/GMJ_Fock_MO.csv $CurrDir/ozone_155.75.GMJ_Fock_MO.csv

>>> COPY $WorkDir/GMJ_PT2_Fock_MO.csv $CurrDir/ozone_155.75.GMJ_PT2_Fock_MO.csv

&MOTRA
Frozen=0
LUMORB

>>> COPY $WorkDir/GMJ_one_int_indx.csv $CurrDir/ozone_155.75.GMJ_one_int_indx.csv

>>> COPY $WorkDir/GMJ_one_int.csv $CurrDir/ozone_155.75.GMJ_one_int.csv

>>> COPY $WorkDir/GMJ_two_int_indx.csv $CurrDir/ozone_155.75.GMJ_two_int_indx.csv

>>> COPY $WorkDir/GMJ_two_int.csv $CurrDir/ozone_155.75.GMJ_two_int.csv

&CASPT2
Frozen
0
MAXITER
50

>>> FOREACH i IN (B,E,F,G,H)

  >>> FOREACH j IN (P,M)

    >>> IF (-FILE GMJ_e2_${i}_${j}.csv)

      >>> COPY $WorkDir/GMJ_RHS_${i}_${j}.csv $CurrDir/GMJ_RHS_${i}_${j}.csv

      >>> COPY $WorkDir/GMJ_IVECW_${i}_${j}.csv $CurrDir/GMJ_IVECW_${i}_${j}.csv

      >>> COPY $WorkDir/GMJ_IVECX_${i}_${j}.csv $CurrDir/GMJ_IVECX_${i}_${j}.csv

      >>> COPY $WorkDir/GMJ_IVECC2_${i}_${j}.csv $CurrDir/GMJ_IVECC2_${i}_${j}.csv

      >>> COPY $WorkDir/GMJ_e2_${i}_${j}.csv $CurrDir/GMJ_e2_${i}_${j}.csv

    >>> END IF

  >>> END FOREACH

>>> END FOREACH

>>> FOREACH i IN (A,C,D)

  >>> IF (-FILE GMJ_e2_$i.csv)

    >>> COPY $WorkDir/GMJ_RHS_$i.csv $CurrDir/GMJ_RHS_$i.csv

    >>> COPY $WorkDir/GMJ_IVECW_$i.csv $CurrDir/GMJ_IVECW_$i.csv

    >>> COPY $WorkDir/GMJ_IVECX_$i.csv $CurrDir/GMJ_IVECX_$i.csv

    >>> COPY $WorkDir/GMJ_IVECC2_$i.csv $CurrDir/GMJ_IVECC2_$i.csv

    >>> COPY $WorkDir/GMJ_e2_$i.csv $CurrDir/GMJ_e2_$i.csv

  >>> END IF

>>> END FOREACH

-- ----------------------------------

--- Start Module: gateway at Sat Jan 25 14:08:01 2025 ---
 
()()()()()()()()()()()()()()()()()()()()()()()()()()()()()()()()()()()()()()()()()()()()()()()()()()

                                              &GATEWAY

                                   only a single process is used
                       available to each process: 2.0 GB of memory, 1 thread?
()()()()()()()()()()()()()()()()()()()()()()()()()()()()()()()()()()()()()()()()()()()()()()()()()()
 
 ###############################################################################
 ###############################################################################
 ###                                                                         ###
 ###                                                                         ###
 ###                                                                         ###
 ###    WARNING: EXPERT option is ON!                                        ###
 ###                                                                         ###
 ###                                                                         ###
 ###############################################################################
 ###############################################################################
 
++    Symmetry information:
      ---------------------
 
                    Character Table for C1 
 
                             E  
                    a        1  x, y, xy, Rz, z, xz, Ry, yz, Rx, I
--
 
 
++    Basis set information:
      ----------------------
 
 
      Basis set label: O.ANO-RCC...2S1P.
 
      Electronic valence basis set:
      ------------------
      Associated Effective Charge   8.000000 au
      Associated Actual Charge      8.000000 au
      Nuclear Model: Point charge
 
      Shell  nPrim  nBasis  Cartesian Spherical Contaminant
         s      14       2        X                  
         p       9       1        X                  
--
 
 
++    Molecular structure info:
      -------------------------
 
                    ************************************************ 
                    **** Cartesian Coordinates / Bohr, Angstrom **** 
                    ************************************************ 
 
     Center  Label                x              y              z                     x              y              z
        1      O1               0.507274       2.361194       0.000000              0.268438       1.249490       0.000000
        2      O2               0.000000       0.000000       0.000000              0.000000       0.000000       0.000000
        3      O3               0.507274      -2.361194       0.000000              0.268438      -1.249490       0.000000
 
                    *************************************** 
                    *    InterNuclear Distances / Bohr    * 
                    *************************************** 
 
               1 O1            2 O2            3 O3    
    1 O1       0.000000
    2 O2       2.415070        0.000000
    3 O3       4.722388        2.415070        0.000000
 
                    ******************************************* 
                    *    InterNuclear Distances / Angstrom    * 
                    ******************************************* 
 
               1 O1            2 O2            3 O3    
    1 O1       0.000000
    2 O2       1.278000        0.000000
    3 O3       2.498980        1.278000        0.000000
 
                    ************************************** 
                    *    Valence Bond Angles / Degree    * 
                    ************************************** 
                          Atom centers                 Phi
                      1 O1       2 O2       3 O3       155.75
--
 
 
            Nuclear Potential Energy             66.55299683 au
 
 ###############################################################################
 ###############################################################################
 ###                                                                         ###
 ###                                                                         ###
 ###    There were warnings during the execution                             ###
 ###    Please, check the output with care!                                  ###
 ###                                                                         ###
 ###                                                                         ###
 ###############################################################################
 ###############################################################################
--- Stop Module: gateway at Sat Jan 25 14:08:01 2025 /rc=_RC_ALL_IS_WELL_ ---
*** files: xmldump
    saved to directory /home/grierjones/DDCASPT2/ozone/ANO-RCC-MB/ozone_155.75

--- Start Module: seward at Sat Jan 25 14:08:01 2025 ---
 
()()()()()()()()()()()()()()()()()()()()()()()()()()()()()()()()()()()()()()()()()()()()()()()()()()

                                              &SEWARD

                                   only a single process is used
                       available to each process: 2.0 GB of memory, 1 thread?
()()()()()()()()()()()()()()()()()()()()()()()()()()()()()()()()()()()()()()()()()()()()()()()()()()
 
 ###############################################################################
 ###############################################################################
 ###                                                                         ###
 ###                                                                         ###
 ###                                                                         ###
 ###    WARNING: EXPERT option is ON!                                        ###
 ###                                                                         ###
 ###                                                                         ###
 ###############################################################################
 ###############################################################################
               SEWARD will generate:
                  Multipole Moment integrals up to order  2
                  Kinetic Energy integrals
                  Nuclear Attraction integrals (point charge)
                  One-Electron Hamiltonian integrals
                  Velocity integrals
                  Relativistic Douglas-Kroll-Hess integrals:
                    - Parametrization         : EXP
                    - DKH order of Hamiltonian: 2
                    - DKH order of Properties : 0
                         - multipole moment operators
                         - electric potential operators
                         - contact operators
                  Atomic mean-field integrals
                  Two-Electron Repulsion integrals
 
                   Integrals are discarded if absolute value <: 0.10E-13
                   Integral cutoff threshold is set to       <: 0.10E-15
 
            Nuclear Potential Energy             66.55299683 au
 
 
      Basis set specifications :
      Symmetry species         a  
      Basis functions           15
 
 
  Input file to MOLDEN was generated!
 
 ###############################################################################
 ###############################################################################
 ###                                                                         ###
 ###                                                                         ###
 ###    There were warnings during the execution                             ###
 ###    Please, check the output with care!                                  ###
 ###                                                                         ###
 ###                                                                         ###
 ###############################################################################
 ###############################################################################
forrtl: warning (525): IEEE_DIVIDE_BY_ZERO is signaling
forrtl: warning (526): IEEE_INVALID is signaling
forrtl: warning (528): IEEE_UNDERFLOW is signaling
--- Stop Module: seward at Sat Jan 25 14:08:01 2025 /rc=_RC_ALL_IS_WELL_ ---
*** files: ozone_155.75.GssOrb ozone_155.75.guessorb.h5 ozone_155.75.guessorb.molden xmldump
    saved to directory /home/grierjones/DDCASPT2/ozone/ANO-RCC-MB/ozone_155.75

*** symbolic link created: INPORB -> ozone_155.75.GssOrb
--- Start Module: scf at Sat Jan 25 14:08:01 2025 ---
 
()()()()()()()()()()()()()()()()()()()()()()()()()()()()()()()()()()()()()()()()()()()()()()()()()()

                                                &SCF

                                   only a single process is used
                       available to each process: 2.0 GB of memory, 1 thread?
()()()()()()()()()()()()()()()()()()()()()()()()()()()()()()()()()()()()()()()()()()()()()()()()()()
 
++    Input section:
      --------------
 
      Header of the integral files:
      
       Integrals generated by seward 4.2.0  , Sat Jan 25 14:08:01 2025
 
 
      Cartesian coordinates in Angstrom:
      -----------------------------------------------------
      No.  Label        X            Y            Z        
      -----------------------------------------------------
       1   O1         0.26843800   1.24949000   0.00000000
       2   O2         0.00000000   0.00000000   0.00000000
       3   O3         0.26843800  -1.24949000   0.00000000
      -----------------------------------------------------
      Nuclear repulsion energy =   66.55299683
--
 
++    Orbital specifications:
      -----------------------
 
      Symmetry species               1
                                     a
      Frozen orbitals                0
      Occupied orbitals             12
      Secondary orbitals             3
      Deleted orbitals               0
      Total number of orbitals      15
      Number of basis functions     15
--
 
      Molecular charge                           0.000
 
++    Optimization specifications:
      ----------------------------
 
      SCF Algorithm: Conventional
      Minimized density differences are used
      Number of density matrices in core                5
      Maximum number of NDDO SCF iterations           400
      Maximum number of HF SCF iterations             400
      Threshold for SCF energy change            0.10E-08
      Threshold for density matrix               0.10E-03
      Threshold for Fock matrix                  0.15E-03
      Threshold for linear dependence            0.10E-08
      Threshold at which DIIS is turned on       0.15E+00
      Threshold at which QNR/C2DIIS is turned on 0.75E-01
      Threshold for Norm(delta) (QNR/C2DIIS)     0.20E-04
      DIIS extrapolation of the SCF procedure
      All orbitals punched on: SCFORB
--
 
      Input vectors read from INPORB
      Orbital file label: *Guess orbitals
 
 
++ Convergence information
                                   SCF        iterations: Energy and convergence statistics
 
Iter     Tot. SCF        One-elec.       Two-elec.     Energy      Max Dij or  Max Fij      DNorm      TNorm      AccCon     Time
         Energy          Energy          Energy        Change      Delta Norm                                                in Sec.
   1  -223.921585869  -436.923449738   146.448867036   0.00E+00    0.53E+00*   0.26E+00*    0.73E+01   0.49E+02   None         0.
   2  -224.139905343  -439.757783897   149.064881722  -0.22E+00*   0.37E+00*   0.13E+00*    0.21E+01   0.49E+02   EDIIS        0.
   3  -224.185779034  -438.520533373   147.781757506  -0.46E-01*   0.14E+00*   0.74E-01*    0.49E+00   0.49E+02   EDIIS        0.
   4  -224.201314909  -439.258730928   148.504419187  -0.16E-01*   0.26E-01*   0.27E-01*    0.11E+00   0.49E+02   c2DIIS       0.
   5  -224.206548681  -439.012944103   148.253398590  -0.52E-02*   0.11E-01*   0.59E-02*    0.28E-01   0.49E+02   QNRc2DIIS    0.
   6  -224.206869041  -439.028300463   148.268434590  -0.32E-03*   0.24E-01*   0.38E-02*    0.73E-02   0.49E+02   QNRc2DIIS    0.
   7  -224.207113053  -439.021705303   148.261595418  -0.24E-03*   0.21E-02*   0.16E-02*    0.41E-02   0.49E+02   QNRc2DIIS    0.
   8  -224.207122521  -439.028723678   148.268604324  -0.95E-05*   0.13E-02*   0.42E-03*    0.16E-02   0.49E+02   QNRc2DIIS    0.
   9  -224.207124270  -439.028279953   148.268158851  -0.17E-05*   0.35E-03*   0.77E-04     0.12E-02   0.49E+02   QNRc2DIIS    0.
  10  -224.207124350  -439.028325399   148.268204217  -0.80E-07*   0.24E-04*   0.16E-04     0.18E-03   0.49E+02   QNRc2DIIS    0.
  11  -224.207124351  -439.028328045   148.268206862  -0.10E-08*   0.11E-04    0.51E-05     0.45E-04   0.49E+02   QNRc2DIIS    0.
  12  -224.207124351  -439.028317212   148.268196029  -0.13E-09    0.86E-06    0.62E-06     0.11E-04   0.49E+02   QNRc2DIIS    0.
 
       Convergence after 12 Macro Iterations
--
 
 *****************************************************************************************************************************
 *                                                                                                                           *
 *                                             SCF/KS-DFT Program, Final results                                             *
 *                                                                                                                           *
 *                                                                                                                           *
 *                                                                                                                           *
 *                                                       Final Results                                                       *
 *                                                                                                                           *
 *****************************************************************************************************************************
 
::    Total SCF energy                               -224.2071243508
      One-electron energy                            -439.0283172120
      Two-electron energy                             148.2681960285
      Nuclear repulsion energy                         66.5529968327
      Kinetic energy (interpolated)                   224.7366681263
      Virial theorem                                    0.9976437144
      Total spin, S(S+1)                                0.0000000000
      Total spin, S                                     0.0000000000
      Max non-diagonal density matrix element           0.0000015802
      Max non-diagonal Fock matrix element              0.0000001863
 
 
      All orbitals with orbital energies smaller than  E(LUMO)+0.5 are printed
 
++    Molecular orbitals:
      -------------------
 
      Title: SCF orbitals

      Molecular orbitals for symmetry species 1: a  
 
          Orbital            1         2         3         4         5         6         7         8         9        10    
          Energy          -21.0131  -20.8105  -20.8104   -1.7629   -1.5097   -1.1080   -0.8757   -0.8116   -0.8112   -0.6497
          Occ. No.          2.0000    2.0000    2.0000    2.0000    2.0000    2.0000    2.0000    2.0000    2.0000    2.0000
 
        1 O1     1s         0.0012   -0.7071    0.7071   -0.0160    0.0161    0.0132   -0.0075    0.0000   -0.0270    0.0052
        2 O1     2s        -0.0003   -0.0002    0.0000    0.3099   -0.5364    0.6509   -0.1329    0.0000   -0.4565    0.0769
        3 O1     2px       -0.0001    0.0002   -0.0002   -0.0249    0.0194    0.0479    0.2796    0.0000   -0.2074   -0.6715
        4 O1     2py        0.0001    0.0013   -0.0011   -0.1036    0.1059    0.1429   -0.1438    0.0000   -0.3738    0.2430
        5 O1     2pz       -0.0000   -0.0000   -0.0000   -0.0000    0.0000    0.0000   -0.0000    0.3778    0.0000   -0.0000
        6 O2     1s         1.0000    0.0000   -0.0019   -0.0238    0.0000   -0.0143   -0.0027    0.0000    0.0000   -0.0000
        7 O2     2s         0.0001    0.0000   -0.0010    0.6602    0.0000   -0.6245   -0.0397    0.0000   -0.0000   -0.0000
        8 O2     2px        0.0009    0.0000   -0.0001    0.0744    0.0000    0.1005    0.7659    0.0000   -0.0000    0.0000
        9 O2     2py       -0.0000    0.0007    0.0000   -0.0000   -0.3586   -0.0000    0.0000   -0.0000    0.5869   -0.1272
       10 O2     2pz       -0.0000   -0.0000   -0.0000   -0.0000    0.0000    0.0000   -0.0000    0.6964    0.0000   -0.0000
       11 O3     1s         0.0012    0.7071    0.7071   -0.0160   -0.0161    0.0132   -0.0075   -0.0000    0.0270   -0.0052
       12 O3     2s        -0.0003    0.0002    0.0000    0.3099    0.5364    0.6509   -0.1329   -0.0000    0.4565   -0.0769
       13 O3     2px       -0.0001   -0.0002   -0.0002   -0.0249   -0.0194    0.0479    0.2796   -0.0000    0.2074    0.6715
       14 O3     2py       -0.0001    0.0013    0.0011    0.1036    0.1059   -0.1429    0.1438    0.0000   -0.3738    0.2430
       15 O3     2pz        0.0000   -0.0000   -0.0000   -0.0000    0.0000    0.0000   -0.0000    0.3778    0.0000    0.0000
 
          Orbital           11        12        13        14    
          Energy           -0.5430   -0.5402   -0.0943    0.1378
          Occ. No.          2.0000    2.0000    0.0000    0.0000
 
        1 O1     1s         0.0030    0.0000   -0.0000    0.0176
        2 O1     2s         0.0218    0.0000   -0.0000    0.2434
        3 O1     2px        0.6691    0.0000   -0.0000   -0.0439
        4 O1     2py        0.0153    0.0000   -0.0000   -0.7577
        5 O1     2pz        0.0000   -0.7168    0.6247    0.0000
        6 O2     1s         0.0145    0.0000   -0.0000   -0.0826
        7 O2     2s         0.1692    0.0000   -0.0000   -0.8469
        8 O2     2px       -0.6422   -0.0000    0.0000   -0.3171
        9 O2     2py       -0.0000   -0.0000    0.0000   -0.0000
       10 O2     2pz       -0.0000    0.0000   -0.7808    0.0000
       11 O3     1s         0.0030    0.0000    0.0000    0.0176
       12 O3     2s         0.0218    0.0000   -0.0000    0.2434
       13 O3     2px        0.6691    0.0000   -0.0000   -0.0439
       14 O3     2py       -0.0153   -0.0000   -0.0000    0.7577
       15 O3     2pz       -0.0000    0.7168    0.6247   -0.0000
--
 
 
++    Molecular charges:
      ------------------
 
      Mulliken charges per centre and basis function type
      ---------------------------------------------------
 
                O1      O2      O3    
      1s       2.0001  2.0000  2.0001
      2s       1.9189  1.6905  1.9189
      2px      1.9662  1.9006  1.9662
      2pz      1.4041  1.1919  1.4041
      2py      0.7558  1.1267  0.7558
      Total    8.0451  7.9098  8.0451
 
      N-E     -0.0451  0.0902 -0.0451
 
      Total electronic charge=   24.000000
 
      Total            charge=   -0.000000
--
 
 
  Input file to MOLDEN was generated!
 
 
++    Static properties:
      ------------------
 
 
      LoProp Charges per center
 

                   O1       O2       O3    
      Nuclear      8.0000   8.0000   8.0000
      Electronic  -8.0930  -7.8140  -8.0930
 
      Total       -0.0930   0.1860  -0.0930
--
 
 
++    Natural Bond Order analysis
      ---------------------------
      Based on LoProp computed density
      -------------------------------------------------------------------------------------
      Atom A       Atom B       Bond Order | Atom A       Atom B       Bond Order
        O1           O2             2.000  |   O2           O3             2.000
      -------------------------------------------------------------------------------------
      NBO located     12.000 core electrons.
      NBO located      3.959 lone pair electrons.
      NBO located      8.000 electrons involved in    2 bonds.
      The remaining    0.041 electrons are to be considered as diffuse
--
 
 
++    Molecular properties:
      ---------------------
 
      Charge (e):
                      =   -0.0000
      Dipole Moment (Debye):
      Origin of the operator (Ang)=    0.0000    0.0000    0.0000
                   X=  1.4025E-01               Y=  3.0211E-11               Z= -6.2638E-14           Total=  1.4025E-01
      Quadrupole Moment (Debye*Ang):
      Origin of the operator (Ang)=    0.1790    0.0000    0.0000
                  XX= -1.7519E+01              XY=  1.1623E-11              XZ= -1.5895E-13              YY= -1.7914E+01
                  YZ= -1.0574E-13              ZZ= -1.5861E+01
      In traceless form (Debye*Ang)
                  XX= -6.3172E-01              XY=  1.7435E-11              XZ= -2.3843E-13              YY= -1.2237E+00
                  YZ= -1.5861E-13              ZZ=  1.8554E+00
--
 
 
  Input file to MOLDEN was generated!
 
 ###############################################################################
 ###############################################################################
 ###                                                                         ###
 ###                                                                         ###
 ###    RunFile label nBas                                                   ###
 ###    was used       78 times                                              ###
 ###                                                                         ###
 ###                                                                         ###
 ###############################################################################
 ###############################################################################
forrtl: warning (528): IEEE_UNDERFLOW is signaling
--- Stop Module: scf at Sat Jan 25 14:08:02 2025 /rc=_RC_ALL_IS_WELL_ ---
*** files: ozone_155.75.LprOrb ozone_155.75.LoProp.molden ozone_155.75.scf.molden ozone_155.75.ScfOrb ozone_155.75.scf.h5 xmldump
    saved to directory /home/grierjones/DDCASPT2/ozone/ANO-RCC-MB/ozone_155.75

>>> COPY /tmp/ozone_155.75/ozone_155.75.scf.h5 /home/grierjones/DDCASPT2/ozone/ANO-RCC-MB/ozone_155.75/

*** symbolic link created: INPORB -> ozone_155.75.ScfOrb
--- Start Module: rasscf at Sat Jan 25 14:08:02 2025 ---
 
()()()()()()()()()()()()()()()()()()()()()()()()()()()()()()()()()()()()()()()()()()()()()()()()()()

                                              &RASSCF

                                   only a single process is used
                       available to each process: 2.0 GB of memory, 1 thread?
()()()()()()()()()()()()()()()()()()()()()()()()()()()()()()()()()()()()()()()()()()()()()()()()()()
 
 
 *************** WARNING ****************
 ###############################################################################
 ###############################################################################
 ###                                                                         ###
 ###                                                                         ###
 ###    Too many macro-iterations.                                           ###
 ###                                                                         ###
 ###                                                                         ###
 ###############################################################################
 ###############################################################################
 Too many macro-iterations requested.
 Reset to maximum, new MAXIT=     200
 ****************************************
 
 *************** WARNING ****************
 ###############################################################################
 ###############################################################################
 ###                                                                         ###
 ###                                                                         ###
 ###    Too many SX-iterations.                                              ###
 ###                                                                         ###
 ###                                                                         ###
 ###############################################################################
 ###############################################################################
 Too many SX-iterations requested.
 Reset to maximum, new ITMAX=     100
 ****************************************
 
      Header of the ONEINT file:
      --------------------------
      
      Integrals generated by seward 4.2.0  , Sat Jan 25 14:08:01 2025
 
 
      OrdInt status: non-squared
 
 
      Cartesian coordinates in Angstrom:
      -----------------------------------------------------
      No.  Label        X            Y            Z        
      -----------------------------------------------------
       1   O1         0.26843800   1.24949000   0.00000000
       2   O2         0.00000000   0.00000000   0.00000000
       3   O3         0.26843800  -1.24949000   0.00000000
      -----------------------------------------------------
      Nuclear repulsion energy =   66.55299683
 
++    Wave function specifications:
      -----------------------------
 
      Number of closed shell electrons          20
      Number of electrons in active shells       4
      Max number of holes in RAS1 space          0
      Max nr of electrons in RAS3 space          0
      Number of inactive orbitals               10
      Number of active orbitals                  3
      Number of secondary orbitals               2
      Spin quantum number                      0.0
      State symmetry                             1
--
 
++    Orbital specifications:
      -----------------------
 
      Symmetry species                           1
                                                 a
      Frozen orbitals                            0
      Inactive orbitals                         10
      Active orbitals                            3
      RAS1 orbitals                              0
      RAS2 orbitals                              3
      RAS3 orbitals                              0
      Secondary orbitals                         2
      Deleted orbitals                           0
      Number of basis functions                 15
--
 
++    CI expansion specifications:
      ----------------------------
 
      Number of CSFs                             6
      Number of determinants                     6
      Number of root(s) required                 1
      Root chosen for geometry opt.              1
      CI root used                               1
         
      highest root included in the CI            1
      max. size of the explicit Hamiltonian      6
--
 
++    Optimization specifications:
      ----------------------------
 
      RASSCF algorithm: Conventional
      Maximum number of macro iterations       200
      Maximum number of SX iterations          100
      Threshold for RASSCF energy            0.100E-07
      Threshold for max MO rotation          0.100E+00
      Threshold for max BLB element          0.100E-03
      Level shift parameter                  0.500E+00
      Make Quasi-Newton update
--
 
      The MO-coefficients are taken from the file:
      /home/grierjones/DDCASPT2/ozone/ANO-RCC-MB/ozone_155.50/ozone_155.50.RasOrb                                                     
      Title: RASSCF average (pseudo-natural) orbitals                                      
 
      Total molecular charge    0.00
 
      ************************************************************************************************************************
      *                                                                                                                      *
      *                                            Wave function control section                                             *
      *                                                                                                                      *
      ************************************************************************************************************************
 
 
                                         RASSCF iterations: Energy and convergence statistics
                                         ----------------------------------------------------
 
      Iter CI   SX   CI       RASSCF       Energy    max ROT     max BLB   max BLB  Level Ln srch  Step   QN   Walltime
          iter iter root      energy       change     param      element    value   shift minimum  type update hh:mm:ss
 Nr of preliminary CI iterations:   1
        1   1    3    1  -224.30422212    0.00E+00  -0.69E-03    9  15 1  0.18E-02*  0.25   0.00    SX    NO    0:00:00
        2   1    3    1  -224.30422589   -0.38E-05*  0.38E-03    7  14 1 -0.93E-03*  0.25   0.00    SX    NO    0:00:00
        3   1    3    1  -224.30422696   -0.11E-05*  0.26E-03    7  14 1 -0.63E-03*  0.25   0.00    SX    NO    0:00:00
        4   1    3    1  -224.30422736   -0.39E-06* -0.14E-03    7  14 1 -0.34E-03*  0.25   0.00    SX    NO    0:00:00
        5   1    2    1  -224.30422748   -0.12E-06*  0.27E-03    7  14 1 -0.22E-03*  0.25   1.67    QN   YES    0:00:00
        6   1    2    1  -224.30422755   -0.74E-07*  0.77E-04    8  15 1  0.91E-04   0.25   0.80    QN   YES    0:00:00
        7   1    2    1  -224.30422755    0.14E-08   0.17E-04    8  15 1 -0.99E-04   0.25   0.42    QN   YES    0:00:00
      Convergence after  7 iterations
 
  Dmat in MO in SXCTL bf call to SXHAM                                                                                    
  mat. size =     3x    3
 
        1.9856885089226399
       -0.0000000000007935      1.6553883871735802
        0.0011374720338792     -0.0000000000011555      0.3589231039037800
        8   1    2    1  -224.30422755   -0.30E-08   0.17E-04    8  15 1 -0.23E-04   0.25   0.42    QN   YES    0:00:00
 
      ************************************************************************************************************************
                                                      Wave function printout:
                       occupation of active orbitals, and spin coupling of open shells (u,d: Spin up or down)
      ************************************************************************************************************************
 
      Note: transformation to natural orbitals
      has been made, which may change the order of the CSFs.
 
      printout of CI-coefficients larger than  0.05 for root  1
      energy=    -224.304228
      conf/sym  111     Coeff  Weight
             1  220  -0.90584 0.82054
             3  202   0.41510 0.17231
             6  022   0.08459 0.00716
 
      Natural orbitals and occupation numbers for root  1
      sym 1:   1.985689   1.655388   0.358922
 
      ************************************************************************************************************************
      *                                                                                                                      *
      *                                                    Final results                                                     *
      *                                                                                                                      *
      ************************************************************************************************************************
 
 
++    Wave function specifications:
      -----------------------------
 
      Number of closed shell electrons          20
      Number of electrons in active shells       4
      Max number of holes in RAS1 space          0
      Max nr of electrons in RAS3 space          0
      Number of inactive orbitals               10
      Number of active orbitals                  3
      Number of secondary orbitals               2
      Spin quantum number                      0.0
      State symmetry                             1
--
 
++    Orbital specifications:
      -----------------------
 
      Symmetry species                           1
                                                 a
      Frozen orbitals                            0
      Inactive orbitals                         10
      Active orbitals                            3
      RAS1 orbitals                              0
      RAS2 orbitals                              3
      RAS3 orbitals                              0
      Secondary orbitals                         2
      Deleted orbitals                           0
      Number of basis functions                 15
--
 
++    CI expansion specifications:
      ----------------------------
 
      Number of CSFs                             6
      Number of determinants                     6
      Number of root(s) required                 1
      CI root used                               1
      highest root included in the CI            1
      Root passed to geometry opt.               1
--
 
++    Final optimization conditions:
      ------------------------------
 
      Average CI energy                            -224.30422755
      RASSCF energy for state  1                   -224.30422755
      Super-CI energy                                -0.00000001
      RASSCF energy change                           -0.00000000
      Max change in MO coefficients               0.148E-04
      Max non-diagonal density matrix element     0.171E-04
      Maximum BLB matrix element                 -0.225E-04
      (orbital pair   8,  15 in symmetry   1)
      Norm of electronic gradient            0.565E-04
--
 
 
      Final state energy(ies):
      ------------------------
 
::    RASSCF root number  1 Total energy:   -224.30422755
 
++    Molecular orbitals:
      -------------------
 
      Pseudonatural active orbitals and approximate occupation numbers
 
 
 
 
      Molecular orbitals for symmetry species 1: a  
 
 
      Orbital                1         2         3         4         5         6         7         8         9        10
      Energy          -20.8765  -20.8478  -20.8478   -1.7271   -1.5001   -1.1011   -0.8366   -0.8046   -0.6633   -0.5274
      Occ. No.          2.0000    2.0000    2.0000    2.0000    2.0000    2.0000    2.0000    2.0000    2.0000    2.0000
 
    1 O1     1s         0.0075   -0.7071    0.7071   -0.0150    0.0140    0.0138   -0.0061   -0.0245    0.0056    0.0026
    2 O1     2s        -0.0004   -0.0001   -0.0000    0.3450   -0.5629    0.6335   -0.0982   -0.4057    0.0841    0.0104
    3 O1     2px       -0.0002    0.0002   -0.0002   -0.0247    0.0173    0.0531    0.3636   -0.2406   -0.6620    0.6281
    4 O1     2py        0.0001    0.0012   -0.0011   -0.1104    0.1033    0.1754   -0.1547   -0.4056    0.2634    0.0639
    5 O1     2pz       -0.0000   -0.0000   -0.0000   -0.0000   -0.0000   -0.0000   -0.0000   -0.0000    0.0000    0.0000
    6 O2     1s         1.0000    0.0000   -0.0109   -0.0263    0.0000   -0.0101   -0.0036    0.0000   -0.0000    0.0189
    7 O2     2s         0.0006    0.0000   -0.0010    0.6135    0.0000   -0.6249   -0.0672   -0.0000   -0.0000    0.2329
    8 O2     2px        0.0011    0.0000   -0.0001    0.0768    0.0000    0.0599    0.6715   -0.0000    0.0000   -0.7203
    9 O2     2py       -0.0000    0.0006    0.0000   -0.0000   -0.3150   -0.0000    0.0000    0.5348   -0.1362   -0.0000
   10 O2     2pz       -0.0000    0.0000    0.0000    0.0000   -0.0000   -0.0000   -0.0000   -0.0000    0.0000   -0.0000
   11 O3     1s         0.0075    0.7071    0.7071   -0.0150   -0.0140    0.0138   -0.0061    0.0245   -0.0056    0.0026
   12 O3     2s        -0.0004    0.0001   -0.0000    0.3450    0.5629    0.6335   -0.0982    0.4057   -0.0841    0.0104
   13 O3     2px       -0.0002   -0.0002   -0.0002   -0.0247   -0.0173    0.0531    0.3636    0.2406    0.6620    0.6281
   14 O3     2py       -0.0001    0.0012    0.0011    0.1104    0.1033   -0.1754    0.1547   -0.4056    0.2634   -0.0639
   15 O3     2pz        0.0000    0.0000    0.0000   -0.0000   -0.0000   -0.0000   -0.0000   -0.0000   -0.0000   -0.0000
 
 
      Orbital               11        12        13        14        15
      Energy            0.0000    0.0000    0.0000    0.1333    0.5462
      Occ. No.          1.9857    1.6554    0.3589    0.0000    0.0000
 
    1 O1     1s         0.0000   -0.0000   -0.0000   -0.0186   -0.0549
    2 O1     2s        -0.0000   -0.0000   -0.0000   -0.2590   -0.5032
    3 O1     2px        0.0000    0.0000   -0.0000    0.0225    0.1803
    4 O1     2py       -0.0000    0.0000    0.0000    0.7452    0.6487
    5 O1     2pz        0.2769   -0.7168    0.6755   -0.0000   -0.0000
    6 O2     1s         0.0000    0.0000    0.0000    0.0814   -0.0000
    7 O2     2s        -0.0000    0.0000    0.0000    0.8647   -0.0000
    8 O2     2px       -0.0000   -0.0000   -0.0000    0.3688   -0.0000
    9 O2     2py        0.0000    0.0000    0.0000    0.0000    1.1193
   10 O2     2pz        0.8085    0.0000   -0.6640    0.0000   -0.0000
   11 O3     1s        -0.0000   -0.0000    0.0000   -0.0186    0.0549
   12 O3     2s         0.0000    0.0000    0.0000   -0.2590    0.5032
   13 O3     2px        0.0000    0.0000    0.0000    0.0225   -0.1803
   14 O3     2py       -0.0000    0.0000   -0.0000   -0.7452    0.6487
   15 O3     2pz        0.2769    0.7168    0.6755   -0.0000   -0.0000
--
 
      Von Neumann Entropy (Root  1) =  0.68086
 

      Mulliken population analysis for root number:  1
      -----------------------------------------------
 
 
++    Molecular charges:
      ------------------
 
      Mulliken charges per centre and basis function type
      ---------------------------------------------------
 
                O1      O2      O3    
      1s       2.0001  2.0001  2.0001
      2s       1.9112  1.6474  1.9112
      2px      1.9729  1.8522  1.9729
      2pz      1.2120  1.5759  1.2120
      2py      0.8651  1.0016  0.8651
      Total    7.9614  8.0772  7.9614
 
      N-E      0.0386 -0.0772  0.0386
 
      Total electronic charge=   24.000000
 
      Total            charge=   -0.000000
--
 
 

      Expectation values of various properties for root number:  1
      -----------------------------------------------------------
 
 
++    Molecular properties:
      ---------------------
 
      Charge (e):
                      =   -0.0000
      Dipole Moment (Debye):
      Origin of the operator (Ang)=    0.0000    0.0000    0.0000
                   X=  4.6716E-01               Y=  4.3170E-11               Z=  4.2594E-14           Total=  4.6716E-01
      Quadrupole Moment (Debye*Ang):
      Origin of the operator (Ang)=    0.1790    0.0000    0.0000
                  XX= -1.7505E+01              XY=  1.2123E-11              XZ=  1.9766E-13              YY= -1.7000E+01
                  YZ= -2.2111E-13              ZZ= -1.5641E+01
      In traceless form (Debye*Ang)
                  XX= -1.1849E+00              XY=  1.8185E-11              XZ=  2.9649E-13              YY= -4.2662E-01
                  YZ= -3.3166E-13              ZZ=  1.6116E+00
--
 

      LoProp population analysis for root number:  1
      -----------------------------------------------
 
 
++    LoProp analysis:
      ----------------
 
 
 
  Input file to MOLDEN was generated!
 
 
++    Static properties:
      ------------------
 
 
      LoProp Charges per center
 

                   O1       O2       O3    
      Nuclear      8.0000   8.0000   8.0000
      Electronic  -7.9968  -8.0064  -7.9968
 
      Total        0.0032  -0.0064   0.0032
--
 
 
      Natural Bond Order analysis for root number:  1
 
++    Natural Bond Order analysis
      ---------------------------
      Based on LoProp computed density
      -------------------------------------------------------------------------------------
      Atom A       Atom B       Bond Order | Atom A       Atom B       Bond Order
        O1           O2             1.963  |   O2           O3             1.963
      -------------------------------------------------------------------------------------
      NBO located     12.000 core electrons.
      NBO located      3.957 lone pair electrons.
      NBO located      7.851 electrons involved in    2 bonds.
      The remaining    0.192 electrons are to be considered as diffuse
--
 
--
 
 
  Input file to MOLDEN was generated!
 
      Average orbitals are written to the RASORB file
      Natural orbitals for root   1 are written to the RASORB.1 file
      Spin density orbitals for root   1 are written to the SPDORB.1 file
 
forrtl: warning (525): IEEE_DIVIDE_BY_ZERO is signaling
forrtl: warning (526): IEEE_INVALID is signaling
forrtl: warning (528): IEEE_UNDERFLOW is signaling
--- Stop Module: rasscf at Sat Jan 25 14:08:02 2025 /rc=_RC_ALL_IS_WELL_ ---
*** files: ozone_155.75.LprOrb ozone_155.75.rasscf.molden ozone_155.75.LoProp.molden ozone_155.75.RasOrb ozone_155.75.RasOrb.1 ozone_155.75.rasscf.h5 ozone_155.75.SpdOrb.1 xmldump
    saved to directory /home/grierjones/DDCASPT2/ozone/ANO-RCC-MB/ozone_155.75

>>> COPY /tmp/ozone_155.75/ozone_155.75.rasscf.h5 /home/grierjones/DDCASPT2/ozone/ANO-RCC-MB/ozone_155.75/

>>> COPY /tmp/ozone_155.75/GMJ_Fock_MO.csv /home/grierjones/DDCASPT2/ozone/ANO-RCC-MB/ozone_155.75/ozone_155.75.GMJ_Fock_MO.csv

>>> COPY /tmp/ozone_155.75/GMJ_PT2_Fock_MO.csv /home/grierjones/DDCASPT2/ozone/ANO-RCC-MB/ozone_155.75/ozone_155.75.GMJ_PT2_Fock_MO.csv

*** symbolic link created: INPORB -> ozone_155.75.RasOrb
--- Start Module: motra at Sat Jan 25 14:08:02 2025 ---
 
()()()()()()()()()()()()()()()()()()()()()()()()()()()()()()()()()()()()()()()()()()()()()()()()()()

                                               &MOTRA

                                   only a single process is used
                       available to each process: 2.0 GB of memory, 1 thread?
()()()()()()()()()()()()()()()()()()()()()()()()()()()()()()()()()()()()()()()()()()()()()()()()()()
 
 
      *** WARNING: Default frozen orbitals is overwritten by user input.
      *** Default values:   3
 
      Header of the integral files:
      
       Integrals generated by seward 4.2.0  , Sat Jan 25 14:08:01 2025
 
 
      Header of MO coefficients source file:
      * RASSCF average (pseudo-natural) orbitals                                      
 
 
      Cartesian coordinates in Angstrom:
      -----------------------------------------------------
      No.  Label        X            Y            Z        
      -----------------------------------------------------
       1   O1         0.26843800   1.24949000   0.00000000
       2   O2         0.00000000   0.00000000   0.00000000
       3   O3         0.26843800  -1.24949000   0.00000000
      -----------------------------------------------------
      Nuclear repulsion energy =   66.55299683
 
      Orbital specifications:
      -----------------------
 
      Symmetry species:              1
      Number of basis functions:    15
      Frozen orbitals:               0
      Deleted orbitals:              0
      Number of orbitals used:      15

       SYMMETRY  BASIS FUNCTIONS       ORBITALS      INTEGRALS   CPU(SEC)  I/O(SEC)
 
        1 1 1 1   15  15  15  15    15  15  15  15        7260       0.00      0.00

       TOTAL CPU TIME(SEC)    0.00TOTAL I/O TIME(SEC)    0.01
 
--- Stop Module: motra at Sat Jan 25 14:08:02 2025 /rc=_RC_ALL_IS_WELL_ ---
*** files: xmldump
    saved to directory /home/grierjones/DDCASPT2/ozone/ANO-RCC-MB/ozone_155.75

>>> COPY /tmp/ozone_155.75/GMJ_one_int_indx.csv /home/grierjones/DDCASPT2/ozone/ANO-RCC-MB/ozone_155.75/ozone_155.75.GMJ_one_int_indx.csv

>>> COPY /tmp/ozone_155.75/GMJ_one_int.csv /home/grierjones/DDCASPT2/ozone/ANO-RCC-MB/ozone_155.75/ozone_155.75.GMJ_one_int.csv

>>> COPY /tmp/ozone_155.75/GMJ_two_int_indx.csv /home/grierjones/DDCASPT2/ozone/ANO-RCC-MB/ozone_155.75/ozone_155.75.GMJ_two_int_indx.csv

>>> COPY /tmp/ozone_155.75/GMJ_two_int.csv /home/grierjones/DDCASPT2/ozone/ANO-RCC-MB/ozone_155.75/ozone_155.75.GMJ_two_int.csv

*** symbolic link created: INPORB -> ozone_155.75.RasOrb
--- Start Module: caspt2 at Sat Jan 25 14:08:02 2025 ---
 
()()()()()()()()()()()()()()()()()()()()()()()()()()()()()()()()()()()()()()()()()()()()()()()()()()

                                              &CASPT2

                                   only a single process is used
                       available to each process: 2.0 GB of memory, 1 thread?
()()()()()()()()()()()()()()()()()()()()()()()()()()()()()()()()()()()()()()()()()()()()()()()()()()
 
 Cholesky algorithm in CASPT2 =    1
 
 ###############################################################################
 ###############################################################################
 ###                                                                         ###
 ###                                                                         ###
 ###    User changed nr of frozen orbitals.                                  ###
 ###                                                                         ###
 ###                                                                         ###
 ###############################################################################
 ###############################################################################
 
++    Wave function specifications:
      -----------------------------
 
      Number of closed shell electrons          20
      Number of electrons in active shells       4
      Max number of holes in RAS1 space          0
      Max number of electrons in RAS3 space      0
      Number of inactive orbitals               10
      Number of active orbitals                  3
      Number of secondary orbitals               2
      Spin quantum number                      0.0
      State symmetry                             1
      Number of CSFs                             6
      Number of root(s) available                1
      Root passed to geometry opt.               1
      A file JOBMIX will be created.
      This is a CASSCF or RASSCF reference function
--
 
++    Orbital specifications:
      -----------------------
 
      Symmetry species                           1
                                                 a
      Frozen orbitals                            0
      Inactive orbitals                         10
      Active orbitals                            3
      Secondary orbitals                         2
      Deleted orbitals                           0
      Number of basis functions                 15
--
 
      Type of Fock operator: STANDARD
      Type of 0-order Hamiltonian: STANDARD WITH DEFAULT IPEA
        "IP-EA" denominator shift =      0.25
      The input orbitals and the CI vector will be transformed.
 
--------------------------------------------------------------------------------
 Estimated memory requirements:
  POLY3 :                   250202
  RHS:                      251368
  SIGMA :                   251440
  PRPCTL:                        0
 Available workspace:    230399382
 
++ CASPT2 computation for group   1
 
********************************************************************************
 Multi-State initialization phase begins for group   1
--------------------------------------------------------------------------------
********************************************************************************
 Compute H0 matrices for state    1
--------------------------------------------------------------------------------
--------------------------------------------------------------------------------
 H0 matrices have been computed.
 
********************************************************************************
  CASPT2 EQUATION SOLUTION
--------------------------------------------------------------------------------
 
  Total nr of CASPT2 parameters:
   Before reduction:        2100
   After  reduction:        1232
 
 The contributions to the second order correlation energy in atomic units.
-----------------------------------------------------------------------------------------------------------------------------
  IT.      VJTU        VJTI        ATVX        AIVX        VJAI        BVAT        BJAT        BJAI        TOTAL       RNORM  
-----------------------------------------------------------------------------------------------------------------------------
-------------------------------------------------------------------------------------------------------------------
 
  FINAL CASPT2 RESULT:
 
  Correlation energy /Case, /Symm, and sums:
 VJTU     -0.00000000 -0.00000000
 VJTIP    -0.00111859 -0.00111859
 VJTIM     0.00000000  0.00000000
 ATVX     -0.00000000 -0.00000000
 AIVX     -0.05273978 -0.05273978
 VJAIP    -0.00000000 -0.00000000
 VJAIM    -0.00000000 -0.00000000
 BVATP    -0.00058865 -0.00058865
 BVATM    -0.00000330 -0.00000330
 BJATP    -0.00000000 -0.00000000
 BJATM    -0.00000000 -0.00000000
 BJAIP    -0.03941245 -0.03941245
 BJAIM    -0.00672498 -0.00672498
 Summed:  -0.10058776 -0.10058776
 
      Reference energy:        -224.3042275529
      E2 (Non-variational):      -0.1005877649
      E2 (Variational):          -0.1005877649
      Total energy:            -224.4048153178
      Residual norm:              0.0000000002
      Reference weight:           0.95060
 
      Contributions to the CASPT2 correlation energy
      Active & Virtual Only:         -0.0005919571
      One Inactive Excited:          -0.0527397825
      Two Inactive Excited:          -0.0472560252
 
 
++ Denominators, etc.
----------------------------------------------------------------------------------------------------
 Report on small energy denominators, large coefficients, and large energy contributions.
CASE  SYMM ACTIVE-MIX  NON-ACTIVE INDICES          DENOMINATOR     RHS VALUE       COEFFICIENT     CONTRIBUTION
VJTU     1  Mu1.0001  In1.010                       0.29947428      0.00000000     -0.00000000     -0.00000000
AIVX     1  Mu1.0006  In1.004 Se1.014               2.58432318      0.07671228     -0.02968372     -0.00227711
AIVX     1  Mu1.0003  In1.005 Se1.014               1.99672575     -0.05517905      0.02763477     -0.00152486
AIVX     1  Mu1.0004  In1.006 Se1.014               1.79913529      0.06380024     -0.03546179     -0.00226247
AIVX     1  Mu1.0006  In1.006 Se1.014               1.95828868     -0.05966446      0.03046769     -0.00181784
AIVX     1  Mu1.0004  In1.007 Se1.014               1.53470534     -0.05371537      0.03500060     -0.00188007
AIVX     1  Mu1.0002  In1.008 Se1.014               1.21292081     -0.10007060      0.08250382     -0.00825621
AIVX     1  Mu1.0003  In1.008 Se1.014               1.30128887      0.05754401     -0.04422078     -0.00254464
AIVX     1  Mu1.0002  In1.009 Se1.014               1.07158498      0.05553436     -0.05182451     -0.00287804
AIVX     1  Mu1.0003  In1.009 Se1.014               1.15995304     -0.03662469      0.03157429     -0.00115640
AIVX     1  Mu1.0004  In1.010 Se1.014               1.22542192      0.03149647     -0.02570265     -0.00080954
AIVX     1  Mu1.0004  In1.005 Se1.015               2.61107584      0.07142573     -0.02735498     -0.00195385
AIVX     1  Mu1.0001  In1.008 Se1.015               1.28290829      0.03650457     -0.02845261     -0.00103865
AIVX     1  Mu1.0004  In1.008 Se1.015               1.91563896     -0.12256034      0.06397903     -0.00784129
AIVX     1  Mu1.0006  In1.008 Se1.015               2.07479235      0.07543753     -0.03635912     -0.00274284
AIVX     1  Mu1.0002  In1.010 Se1.015               1.34860963      0.04373164     -0.03242720     -0.00141809
BJAIP    1  Se1.014 In1.006 Se1.014 In1.006         2.46870854      0.07329555     -0.02968980     -0.00217613
BJAIP    1  Se1.014 In1.006 Se1.015 In1.008         2.58521221     -0.08510201      0.03291872     -0.00280145
BJAIP    1  Se1.014 In1.008 Se1.014 In1.008         1.87581001      0.09036417     -0.04817342     -0.00435315
BJAIP    1  Se1.015 In1.008 Se1.015 In1.008         2.70171587      0.10911574     -0.04038749     -0.00440691
BJAIP    1  Se1.014 In1.008 Se1.014 In1.009         1.73447418     -0.05552002      0.03200971     -0.00177718
BJAIP    1  Se1.014 In1.009 Se1.014 In1.009         1.59313835      0.04196909     -0.02634366     -0.00110562
BJAIP    1  Se1.014 In1.008 Se1.015 In1.010         2.01149883     -0.06062328      0.03013830     -0.00182708
BJAIM    1  Se1.014 In1.006 Se1.014 In1.008         2.58521221     -0.08819100      0.03411355     -0.00300851
--
 
   (Skipping property calculation,
    use PROP keyword to activate)
--
 
  Total CASPT2 energies:
::    CASPT2 Root  1     Total energy:   -224.40481532
 
  A NEW JOBIPH FILE NAMED 'JOBMIX' IS PREPARED.
********************************************************************************
forrtl: warning (528): IEEE_UNDERFLOW is signaling
--- Stop Module: caspt2 at Sat Jan 25 14:08:02 2025 /rc=_RC_ALL_IS_WELL_ ---
*** files: xmldump
    saved to directory /home/grierjones/DDCASPT2/ozone/ANO-RCC-MB/ozone_155.75

>>> EXPORT i = B

>>> EXPORT j = P

>>> IF (-FILE GMJ_e2_${i}_${j}.csv)

>>> COPY /tmp/ozone_155.75/GMJ_RHS_B_P.csv /home/grierjones/DDCASPT2/ozone/ANO-RCC-MB/ozone_155.75/GMJ_RHS_B_P.csv

>>> COPY /tmp/ozone_155.75/GMJ_IVECW_B_P.csv /home/grierjones/DDCASPT2/ozone/ANO-RCC-MB/ozone_155.75/GMJ_IVECW_B_P.csv

>>> COPY /tmp/ozone_155.75/GMJ_IVECX_B_P.csv /home/grierjones/DDCASPT2/ozone/ANO-RCC-MB/ozone_155.75/GMJ_IVECX_B_P.csv

>>> COPY /tmp/ozone_155.75/GMJ_IVECC2_B_P.csv /home/grierjones/DDCASPT2/ozone/ANO-RCC-MB/ozone_155.75/GMJ_IVECC2_B_P.csv

>>> COPY /tmp/ozone_155.75/GMJ_e2_B_P.csv /home/grierjones/DDCASPT2/ozone/ANO-RCC-MB/ozone_155.75/GMJ_e2_B_P.csv

>>> END FOREACH

>>> EXPORT j = M

>>> IF (-FILE GMJ_e2_${i}_${j}.csv)
(Skipped)

>>> END FOREACH

>>> END FOREACH

>>> EXPORT i = E

>>> EXPORT j = P

>>> IF (-FILE GMJ_e2_${i}_${j}.csv)

>>> COPY /tmp/ozone_155.75/GMJ_RHS_E_P.csv /home/grierjones/DDCASPT2/ozone/ANO-RCC-MB/ozone_155.75/GMJ_RHS_E_P.csv

>>> COPY /tmp/ozone_155.75/GMJ_IVECW_E_P.csv /home/grierjones/DDCASPT2/ozone/ANO-RCC-MB/ozone_155.75/GMJ_IVECW_E_P.csv

>>> COPY /tmp/ozone_155.75/GMJ_IVECX_E_P.csv /home/grierjones/DDCASPT2/ozone/ANO-RCC-MB/ozone_155.75/GMJ_IVECX_E_P.csv

>>> COPY /tmp/ozone_155.75/GMJ_IVECC2_E_P.csv /home/grierjones/DDCASPT2/ozone/ANO-RCC-MB/ozone_155.75/GMJ_IVECC2_E_P.csv

>>> COPY /tmp/ozone_155.75/GMJ_e2_E_P.csv /home/grierjones/DDCASPT2/ozone/ANO-RCC-MB/ozone_155.75/GMJ_e2_E_P.csv

>>> END FOREACH

>>> EXPORT j = M

>>> IF (-FILE GMJ_e2_${i}_${j}.csv)

>>> COPY /tmp/ozone_155.75/GMJ_RHS_E_M.csv /home/grierjones/DDCASPT2/ozone/ANO-RCC-MB/ozone_155.75/GMJ_RHS_E_M.csv

>>> COPY /tmp/ozone_155.75/GMJ_IVECW_E_M.csv /home/grierjones/DDCASPT2/ozone/ANO-RCC-MB/ozone_155.75/GMJ_IVECW_E_M.csv

>>> COPY /tmp/ozone_155.75/GMJ_IVECX_E_M.csv /home/grierjones/DDCASPT2/ozone/ANO-RCC-MB/ozone_155.75/GMJ_IVECX_E_M.csv

>>> COPY /tmp/ozone_155.75/GMJ_IVECC2_E_M.csv /home/grierjones/DDCASPT2/ozone/ANO-RCC-MB/ozone_155.75/GMJ_IVECC2_E_M.csv

>>> COPY /tmp/ozone_155.75/GMJ_e2_E_M.csv /home/grierjones/DDCASPT2/ozone/ANO-RCC-MB/ozone_155.75/GMJ_e2_E_M.csv

>>> END FOREACH

>>> END FOREACH

>>> EXPORT i = F

>>> EXPORT j = P

>>> IF (-FILE GMJ_e2_${i}_${j}.csv)

>>> COPY /tmp/ozone_155.75/GMJ_RHS_F_P.csv /home/grierjones/DDCASPT2/ozone/ANO-RCC-MB/ozone_155.75/GMJ_RHS_F_P.csv

>>> COPY /tmp/ozone_155.75/GMJ_IVECW_F_P.csv /home/grierjones/DDCASPT2/ozone/ANO-RCC-MB/ozone_155.75/GMJ_IVECW_F_P.csv

>>> COPY /tmp/ozone_155.75/GMJ_IVECX_F_P.csv /home/grierjones/DDCASPT2/ozone/ANO-RCC-MB/ozone_155.75/GMJ_IVECX_F_P.csv

>>> COPY /tmp/ozone_155.75/GMJ_IVECC2_F_P.csv /home/grierjones/DDCASPT2/ozone/ANO-RCC-MB/ozone_155.75/GMJ_IVECC2_F_P.csv

>>> COPY /tmp/ozone_155.75/GMJ_e2_F_P.csv /home/grierjones/DDCASPT2/ozone/ANO-RCC-MB/ozone_155.75/GMJ_e2_F_P.csv

>>> END FOREACH

>>> EXPORT j = M

>>> IF (-FILE GMJ_e2_${i}_${j}.csv)

>>> COPY /tmp/ozone_155.75/GMJ_RHS_F_M.csv /home/grierjones/DDCASPT2/ozone/ANO-RCC-MB/ozone_155.75/GMJ_RHS_F_M.csv

>>> COPY /tmp/ozone_155.75/GMJ_IVECW_F_M.csv /home/grierjones/DDCASPT2/ozone/ANO-RCC-MB/ozone_155.75/GMJ_IVECW_F_M.csv

>>> COPY /tmp/ozone_155.75/GMJ_IVECX_F_M.csv /home/grierjones/DDCASPT2/ozone/ANO-RCC-MB/ozone_155.75/GMJ_IVECX_F_M.csv

>>> COPY /tmp/ozone_155.75/GMJ_IVECC2_F_M.csv /home/grierjones/DDCASPT2/ozone/ANO-RCC-MB/ozone_155.75/GMJ_IVECC2_F_M.csv

>>> COPY /tmp/ozone_155.75/GMJ_e2_F_M.csv /home/grierjones/DDCASPT2/ozone/ANO-RCC-MB/ozone_155.75/GMJ_e2_F_M.csv

>>> END FOREACH

>>> END FOREACH

>>> EXPORT i = G

>>> EXPORT j = P

>>> IF (-FILE GMJ_e2_${i}_${j}.csv)

>>> COPY /tmp/ozone_155.75/GMJ_RHS_G_P.csv /home/grierjones/DDCASPT2/ozone/ANO-RCC-MB/ozone_155.75/GMJ_RHS_G_P.csv

>>> COPY /tmp/ozone_155.75/GMJ_IVECW_G_P.csv /home/grierjones/DDCASPT2/ozone/ANO-RCC-MB/ozone_155.75/GMJ_IVECW_G_P.csv

>>> COPY /tmp/ozone_155.75/GMJ_IVECX_G_P.csv /home/grierjones/DDCASPT2/ozone/ANO-RCC-MB/ozone_155.75/GMJ_IVECX_G_P.csv

>>> COPY /tmp/ozone_155.75/GMJ_IVECC2_G_P.csv /home/grierjones/DDCASPT2/ozone/ANO-RCC-MB/ozone_155.75/GMJ_IVECC2_G_P.csv

>>> COPY /tmp/ozone_155.75/GMJ_e2_G_P.csv /home/grierjones/DDCASPT2/ozone/ANO-RCC-MB/ozone_155.75/GMJ_e2_G_P.csv

>>> END FOREACH

>>> EXPORT j = M

>>> IF (-FILE GMJ_e2_${i}_${j}.csv)

>>> COPY /tmp/ozone_155.75/GMJ_RHS_G_M.csv /home/grierjones/DDCASPT2/ozone/ANO-RCC-MB/ozone_155.75/GMJ_RHS_G_M.csv

>>> COPY /tmp/ozone_155.75/GMJ_IVECW_G_M.csv /home/grierjones/DDCASPT2/ozone/ANO-RCC-MB/ozone_155.75/GMJ_IVECW_G_M.csv

>>> COPY /tmp/ozone_155.75/GMJ_IVECX_G_M.csv /home/grierjones/DDCASPT2/ozone/ANO-RCC-MB/ozone_155.75/GMJ_IVECX_G_M.csv

>>> COPY /tmp/ozone_155.75/GMJ_IVECC2_G_M.csv /home/grierjones/DDCASPT2/ozone/ANO-RCC-MB/ozone_155.75/GMJ_IVECC2_G_M.csv

>>> COPY /tmp/ozone_155.75/GMJ_e2_G_M.csv /home/grierjones/DDCASPT2/ozone/ANO-RCC-MB/ozone_155.75/GMJ_e2_G_M.csv

>>> END FOREACH

>>> END FOREACH

>>> EXPORT i = H

>>> EXPORT j = P

>>> IF (-FILE GMJ_e2_${i}_${j}.csv)

>>> COPY /tmp/ozone_155.75/GMJ_RHS_H_P.csv /home/grierjones/DDCASPT2/ozone/ANO-RCC-MB/ozone_155.75/GMJ_RHS_H_P.csv

>>> COPY /tmp/ozone_155.75/GMJ_IVECW_H_P.csv /home/grierjones/DDCASPT2/ozone/ANO-RCC-MB/ozone_155.75/GMJ_IVECW_H_P.csv

>>> COPY /tmp/ozone_155.75/GMJ_IVECX_H_P.csv /home/grierjones/DDCASPT2/ozone/ANO-RCC-MB/ozone_155.75/GMJ_IVECX_H_P.csv

>>> COPY /tmp/ozone_155.75/GMJ_IVECC2_H_P.csv /home/grierjones/DDCASPT2/ozone/ANO-RCC-MB/ozone_155.75/GMJ_IVECC2_H_P.csv

>>> COPY /tmp/ozone_155.75/GMJ_e2_H_P.csv /home/grierjones/DDCASPT2/ozone/ANO-RCC-MB/ozone_155.75/GMJ_e2_H_P.csv

>>> END FOREACH

>>> EXPORT j = M

>>> IF (-FILE GMJ_e2_${i}_${j}.csv)

>>> COPY /tmp/ozone_155.75/GMJ_RHS_H_M.csv /home/grierjones/DDCASPT2/ozone/ANO-RCC-MB/ozone_155.75/GMJ_RHS_H_M.csv

>>> COPY /tmp/ozone_155.75/GMJ_IVECW_H_M.csv /home/grierjones/DDCASPT2/ozone/ANO-RCC-MB/ozone_155.75/GMJ_IVECW_H_M.csv

>>> COPY /tmp/ozone_155.75/GMJ_IVECX_H_M.csv /home/grierjones/DDCASPT2/ozone/ANO-RCC-MB/ozone_155.75/GMJ_IVECX_H_M.csv

>>> COPY /tmp/ozone_155.75/GMJ_IVECC2_H_M.csv /home/grierjones/DDCASPT2/ozone/ANO-RCC-MB/ozone_155.75/GMJ_IVECC2_H_M.csv

>>> COPY /tmp/ozone_155.75/GMJ_e2_H_M.csv /home/grierjones/DDCASPT2/ozone/ANO-RCC-MB/ozone_155.75/GMJ_e2_H_M.csv

>>> END FOREACH

>>> END FOREACH

>>> EXPORT i = A

>>> IF (-FILE GMJ_e2_$i.csv)

>>> COPY /tmp/ozone_155.75/GMJ_RHS_A.csv /home/grierjones/DDCASPT2/ozone/ANO-RCC-MB/ozone_155.75/GMJ_RHS_A.csv

>>> COPY /tmp/ozone_155.75/GMJ_IVECW_A.csv /home/grierjones/DDCASPT2/ozone/ANO-RCC-MB/ozone_155.75/GMJ_IVECW_A.csv

>>> COPY /tmp/ozone_155.75/GMJ_IVECX_A.csv /home/grierjones/DDCASPT2/ozone/ANO-RCC-MB/ozone_155.75/GMJ_IVECX_A.csv

>>> COPY /tmp/ozone_155.75/GMJ_IVECC2_A.csv /home/grierjones/DDCASPT2/ozone/ANO-RCC-MB/ozone_155.75/GMJ_IVECC2_A.csv

>>> COPY /tmp/ozone_155.75/GMJ_e2_A.csv /home/grierjones/DDCASPT2/ozone/ANO-RCC-MB/ozone_155.75/GMJ_e2_A.csv

>>> END FOREACH

>>> EXPORT i = C

>>> IF (-FILE GMJ_e2_$i.csv)

>>> COPY /tmp/ozone_155.75/GMJ_RHS_C.csv /home/grierjones/DDCASPT2/ozone/ANO-RCC-MB/ozone_155.75/GMJ_RHS_C.csv

>>> COPY /tmp/ozone_155.75/GMJ_IVECW_C.csv /home/grierjones/DDCASPT2/ozone/ANO-RCC-MB/ozone_155.75/GMJ_IVECW_C.csv

>>> COPY /tmp/ozone_155.75/GMJ_IVECX_C.csv /home/grierjones/DDCASPT2/ozone/ANO-RCC-MB/ozone_155.75/GMJ_IVECX_C.csv

>>> COPY /tmp/ozone_155.75/GMJ_IVECC2_C.csv /home/grierjones/DDCASPT2/ozone/ANO-RCC-MB/ozone_155.75/GMJ_IVECC2_C.csv

>>> COPY /tmp/ozone_155.75/GMJ_e2_C.csv /home/grierjones/DDCASPT2/ozone/ANO-RCC-MB/ozone_155.75/GMJ_e2_C.csv

>>> END FOREACH

>>> EXPORT i = D

>>> IF (-FILE GMJ_e2_$i.csv)

>>> COPY /tmp/ozone_155.75/GMJ_RHS_D.csv /home/grierjones/DDCASPT2/ozone/ANO-RCC-MB/ozone_155.75/GMJ_RHS_D.csv

>>> COPY /tmp/ozone_155.75/GMJ_IVECW_D.csv /home/grierjones/DDCASPT2/ozone/ANO-RCC-MB/ozone_155.75/GMJ_IVECW_D.csv

>>> COPY /tmp/ozone_155.75/GMJ_IVECX_D.csv /home/grierjones/DDCASPT2/ozone/ANO-RCC-MB/ozone_155.75/GMJ_IVECX_D.csv

>>> COPY /tmp/ozone_155.75/GMJ_IVECC2_D.csv /home/grierjones/DDCASPT2/ozone/ANO-RCC-MB/ozone_155.75/GMJ_IVECC2_D.csv

>>> COPY /tmp/ozone_155.75/GMJ_e2_D.csv /home/grierjones/DDCASPT2/ozone/ANO-RCC-MB/ozone_155.75/GMJ_e2_D.csv

>>> END FOREACH

.########################.
.# Non-zero return code #.
.########################.

    Timing: Wall=1.05 User=0.77 System=0.27
********************************************
*** WorkDir at /tmp/ozone_155.75 cleaned ***
********************************************
