[Molden Format]
[N_Atoms]
                     2
[Atoms] (AU)
F1          1      9           0.00000000      0.00000000      0.00000000
F2          2      9           0.00000000      0.00000000      4.72431531
[Charge] (Mulliken)
   1.00005380021561     
  0.999946199784342     
[GTO] (AU)
   1
   s  14
  1.031094600E+05  1.713099991E-04
  1.528100700E+04  7.123999962E-04
  3.441539200E+03  2.990479984E-03
  9.670948300E+02  1.164036994E-02
  3.140353400E+02  3.968642979E-02
  1.134423000E+02  1.128546094E-01
  4.464472700E+01  2.473650687E-01
  1.894287400E+01  3.672702681E-01
  8.532743000E+00  2.896286985E-01
  3.919401000E+00  7.786681959E-02
  1.568157000E+00  4.562139976E-03
  6.232900000E-01  2.468879987E-03
  2.408610000E-01  1.106309994E-03
  8.430100000E-02  1.739699991E-04
   s  14
  1.031094600E+05 -4.044999995E-05
  1.528100700E+04 -1.682299998E-04
  3.441539200E+03 -7.084299991E-04
  9.670948300E+02 -2.767999996E-03
  3.140353400E+02 -9.611379987E-03
  1.134423000E+02 -2.833957996E-02
  4.464472700E+01 -6.839343991E-02
  1.894287400E+01 -1.237379298E-01
  8.532743000E+00 -1.512859698E-01
  3.919401000E+00 -9.099909988E-03
  1.568157000E+00  3.716257695E-01
  6.232900000E-01  5.500214393E-01
  2.408610000E-01  2.092318697E-01
  8.430100000E-02  8.074639989E-03
   p   9
  2.453302900E+02  1.024860004E-03
  5.691900500E+01  8.344290032E-03
  1.760456800E+01  4.078927016E-02
  6.274995000E+00  1.351370605E-01
  2.447030000E+00  2.798830811E-01
  9.950600000E-01  3.597966414E-01
  4.039730000E-01  3.055347412E-01
  1.548100000E-01  1.354703905E-01
  5.418400000E-02  2.804449011E-02
 
   2
   s  14
  1.031094600E+05  1.713099991E-04
  1.528100700E+04  7.123999962E-04
  3.441539200E+03  2.990479984E-03
  9.670948300E+02  1.164036994E-02
  3.140353400E+02  3.968642979E-02
  1.134423000E+02  1.128546094E-01
  4.464472700E+01  2.473650687E-01
  1.894287400E+01  3.672702681E-01
  8.532743000E+00  2.896286985E-01
  3.919401000E+00  7.786681959E-02
  1.568157000E+00  4.562139976E-03
  6.232900000E-01  2.468879987E-03
  2.408610000E-01  1.106309994E-03
  8.430100000E-02  1.739699991E-04
   s  14
  1.031094600E+05 -4.044999995E-05
  1.528100700E+04 -1.682299998E-04
  3.441539200E+03 -7.084299991E-04
  9.670948300E+02 -2.767999996E-03
  3.140353400E+02 -9.611379987E-03
  1.134423000E+02 -2.833957996E-02
  4.464472700E+01 -6.839343991E-02
  1.894287400E+01 -1.237379298E-01
  8.532743000E+00 -1.512859698E-01
  3.919401000E+00 -9.099909988E-03
  1.568157000E+00  3.716257695E-01
  6.232900000E-01  5.500214393E-01
  2.408610000E-01  2.092318697E-01
  8.430100000E-02  8.074639989E-03
   p   9
  2.453302900E+02  1.024860004E-03
  5.691900500E+01  8.344290032E-03
  1.760456800E+01  4.078927016E-02
  6.274995000E+00  1.351370605E-01
  2.447030000E+00  2.798830811E-01
  9.950600000E-01  3.597966414E-01
  4.039730000E-01  3.055347412E-01
  1.548100000E-01  1.354703905E-01
  5.418400000E-02  2.804449011E-02
 
[MO]
Sym=     1a  
Ene=   -27.8920
Spin= Alpha
Occup=    2.00000
   1        -0.99998813
   2         0.00487318
   3        -0.00000000
   4         0.00000000
   5        -0.00010727
   6         0.00001989
   7         0.00001667
   8         0.00000000
   9        -0.00000000
  10        -0.00000190
Sym=     2a  
Ene=   -27.8780
Spin= Alpha
Occup=    2.00000
   1         0.00001672
   2        -0.00001463
   3         0.00000000
   4         0.00000000
   5        -0.00000543
   6         0.99998813
   7        -0.00487498
   8        -0.00000000
   9        -0.00000000
  10         0.00002661
Sym=     3a  
Ene=    -2.6116
Spin= Alpha
Occup=    2.00000
   1         0.00477747
   2         0.98748419
   3         0.00000000
   4         0.00000000
   5         0.03501134
   6         0.00037495
   7         0.14330127
   8         0.00000000
   9        -0.00000000
  10         0.00114718
Sym=     4a  
Ene=    -2.5954
Spin= Alpha
Occup=    2.00000
   1        -0.00104661
   2        -0.15496757
   3        -0.00000000
   4         0.00000000
   5        -0.00981519
   6         0.00488761
   7         0.98967536
   8         0.00000000
   9        -0.00000000
  10        -0.02150521
Sym=     5a  
Ene=    -1.7520
Spin= Alpha
Occup=    2.00000
   1         0.00027366
   2         0.03547510
   3         0.00000000
   4         0.00000000
   5        -1.00003208
   6         0.00274610
   7         0.03491584
   8        -0.00000000
   9         0.00000000
  10         0.00100615
Sym=     6a  
Ene=    -1.7270
Spin= Alpha
Occup=    2.00000
   1         0.00000000
   2         0.00000000
   3         0.00119427
   4        -0.00712892
   5         0.00000000
   6        -0.00000000
   7         0.00000000
   8        -0.16523987
   9         0.98635819
  10         0.00000000
Sym=     7a  
Ene=    -1.7270
Spin= Alpha
Occup=    2.00000
   1         0.00000000
   2        -0.00000000
   3         0.00712892
   4         0.00119427
   5         0.00000000
   6        -0.00000000
   7         0.00000000
   8        -0.98635819
   9        -0.16523987
  10         0.00000000
Sym=     8a  
Ene=    -1.3983
Spin= Alpha
Occup=    1.00000
   1        -0.00000000
   2         0.00000000
   3         0.06072391
   4        -0.99828914
   5        -0.00000000
   6         0.00000000
   7         0.00000000
   8        -0.00064874
   9         0.01066510
  10        -0.00000000
Sym=     9a  
Ene=    -0.0000
Spin= Alpha
Occup=    1.00000
   1         0.00000000
   2         0.00000000
   3        -0.99828914
   4        -0.06072391
   5        -0.00000000
   6         0.00000000
   7         0.00000000
   8         0.01066510
   9         0.00064874
  10         0.00000000
Sym=    10a  
Ene=    -1.0492
Spin= Alpha
Occup=    0.00000
   1         0.00275609
   2         0.03394028
   3         0.00000000
   4        -0.00000000
   5         0.05957776
   6        -0.00009981
   7         0.01840319
   8         0.00000000
   9        -0.00000000
  10         1.00223301
