[Molden Format]
[N_Atoms]
                     2
[Atoms] (AU)
F1          1      9           0.00000000      0.00000000      0.00000000
F2          2      9           0.00000000      0.00000000      4.72431531
[Charge] (Mulliken)
  2.664535259100376E-014
 -4.085620730620576E-014
[GTO] (AU)
   1
   s  14
  1.031094600E+05  1.713099991E-04
  1.528100700E+04  7.123999962E-04
  3.441539200E+03  2.990479984E-03
  9.670948300E+02  1.164036994E-02
  3.140353400E+02  3.968642979E-02
  1.134423000E+02  1.128546094E-01
  4.464472700E+01  2.473650687E-01
  1.894287400E+01  3.672702681E-01
  8.532743000E+00  2.896286985E-01
  3.919401000E+00  7.786681959E-02
  1.568157000E+00  4.562139976E-03
  6.232900000E-01  2.468879987E-03
  2.408610000E-01  1.106309994E-03
  8.430100000E-02  1.739699991E-04
   s  14
  1.031094600E+05 -4.044999995E-05
  1.528100700E+04 -1.682299998E-04
  3.441539200E+03 -7.084299991E-04
  9.670948300E+02 -2.767999996E-03
  3.140353400E+02 -9.611379987E-03
  1.134423000E+02 -2.833957996E-02
  4.464472700E+01 -6.839343991E-02
  1.894287400E+01 -1.237379298E-01
  8.532743000E+00 -1.512859698E-01
  3.919401000E+00 -9.099909988E-03
  1.568157000E+00  3.716257695E-01
  6.232900000E-01  5.500214393E-01
  2.408610000E-01  2.092318697E-01
  8.430100000E-02  8.074639989E-03
   p   9
  2.453302900E+02  1.024860004E-03
  5.691900500E+01  8.344290032E-03
  1.760456800E+01  4.078927016E-02
  6.274995000E+00  1.351370605E-01
  2.447030000E+00  2.798830811E-01
  9.950600000E-01  3.597966414E-01
  4.039730000E-01  3.055347412E-01
  1.548100000E-01  1.354703905E-01
  5.418400000E-02  2.804449011E-02
 
   2
   s  14
  1.031094600E+05  1.713099991E-04
  1.528100700E+04  7.123999962E-04
  3.441539200E+03  2.990479984E-03
  9.670948300E+02  1.164036994E-02
  3.140353400E+02  3.968642979E-02
  1.134423000E+02  1.128546094E-01
  4.464472700E+01  2.473650687E-01
  1.894287400E+01  3.672702681E-01
  8.532743000E+00  2.896286985E-01
  3.919401000E+00  7.786681959E-02
  1.568157000E+00  4.562139976E-03
  6.232900000E-01  2.468879987E-03
  2.408610000E-01  1.106309994E-03
  8.430100000E-02  1.739699991E-04
   s  14
  1.031094600E+05 -4.044999995E-05
  1.528100700E+04 -1.682299998E-04
  3.441539200E+03 -7.084299991E-04
  9.670948300E+02 -2.767999996E-03
  3.140353400E+02 -9.611379987E-03
  1.134423000E+02 -2.833957996E-02
  4.464472700E+01 -6.839343991E-02
  1.894287400E+01 -1.237379298E-01
  8.532743000E+00 -1.512859698E-01
  3.919401000E+00 -9.099909988E-03
  1.568157000E+00  3.716257695E-01
  6.232900000E-01  5.500214393E-01
  2.408610000E-01  2.092318697E-01
  8.430100000E-02  8.074639989E-03
   p   9
  2.453302900E+02  1.024860004E-03
  5.691900500E+01  8.344290032E-03
  1.760456800E+01  4.078927016E-02
  6.274995000E+00  1.351370605E-01
  2.447030000E+00  2.798830811E-01
  9.950600000E-01  3.597966414E-01
  4.039730000E-01  3.055347412E-01
  1.548100000E-01  1.354703905E-01
  5.418400000E-02  2.804449011E-02
 
[MO]
Sym=     1a  
Ene=   -26.4780
Spin= Alpha
Occup=    2.00000
   1         0.70710121
   2        -0.00242999
   3         0.00000000
   4         0.00000000
   5         0.00006807
   6         0.70710112
   7        -0.00242999
   8         0.00000000
   9         0.00000000
  10        -0.00006807
Sym=     2a  
Ene=   -26.4780
Spin= Alpha
Occup=    2.00000
   1        -0.70710407
   2         0.00240494
   3         0.00000000
   4         0.00000000
   5        -0.00006373
   6         0.70710417
   7        -0.00240494
   8         0.00000000
   9         0.00000000
  10        -0.00006373
Sym=     3a  
Ene=    -1.6252
Spin= Alpha
Occup=    2.00000
   1         0.00220413
   2         0.70326444
   3         0.00000000
   4        -0.00000000
   5         0.00839535
   6         0.00220413
   7         0.70326444
   8        -0.00000000
   9        -0.00000000
  10        -0.00839535
Sym=     4a  
Ene=    -1.6101
Spin= Alpha
Occup=    2.00000
   1        -0.00257511
   2        -0.71004819
   3        -0.00000000
   4        -0.00000000
   5         0.01224146
   6         0.00257511
   7         0.71004819
   8         0.00000000
   9         0.00000000
  10         0.01224146
Sym=     5a  
Ene=    -0.7478
Spin= Alpha
Occup=    2.00000
   1         0.00000000
   2         0.00000000
   3        -0.04255316
   4         0.69956560
   5        -0.00000000
   6        -0.00000000
   7         0.00000000
   8        -0.04255316
   9         0.69956560
  10         0.00000000
Sym=     6a  
Ene=    -0.7398
Spin= Alpha
Occup=    2.00000
   1        -0.00000000
   2        -0.00000000
   3         0.04332221
   4        -0.71220871
   5         0.00000000
   6         0.00000000
   7        -0.00000000
   8        -0.04332221
   9         0.71220871
  10        -0.00000000
Sym=     7a  
Ene=    -0.7162
Spin= Alpha
Occup=    2.00000
   1        -0.00000000
   2        -0.00000000
   3         0.69956560
   4         0.04255316
   5         0.00000000
   6        -0.00000000
   7        -0.00000000
   8         0.69956560
   9         0.04255316
  10        -0.00000000
Sym=     8a  
Ene=    -0.5666
Spin= Alpha
Occup=    2.00000
   1         0.00199969
   2         0.03467082
   3         0.00000000
   4        -0.00000000
   5        -0.68769142
   6         0.00199969
   7         0.03467082
   8         0.00000000
   9         0.00000000
  10         0.68769142
Sym=     9a  
Ene=    -0.6804
Spin= Alpha
Occup=    1.73550
   1        -0.00000000
   2         0.00000000
   3        -0.71220871
   4        -0.04332221
   5        -0.00000000
   6         0.00000000
   7        -0.00000000
   8         0.71220871
   9         0.04332221
  10        -0.00000000
Sym=    10a  
Ene=     0.0001
Spin= Alpha
Occup=    0.26450
   1         0.00201624
   2         0.04013821
   3        -0.00000000
   4        -0.00000000
   5         0.72924343
   6        -0.00201624
   7        -0.04013821
   8         0.00000000
   9         0.00000000
  10         0.72924343
