[Molden Format]
[N_Atoms]
                     2
[Atoms] (AU)
F1          1      9           0.00000000      0.00000000      0.00000000
F2          2      9           0.00000000      0.00000000      4.72431531
[Charge] (Mulliken)
 -1.563194018672220E-012
  1.556088591314619E-012
[GTO] (AU)
   1
   s  14
  1.031094600E+05  1.713099991E-04
  1.528100700E+04  7.123999962E-04
  3.441539200E+03  2.990479984E-03
  9.670948300E+02  1.164036994E-02
  3.140353400E+02  3.968642979E-02
  1.134423000E+02  1.128546094E-01
  4.464472700E+01  2.473650687E-01
  1.894287400E+01  3.672702681E-01
  8.532743000E+00  2.896286985E-01
  3.919401000E+00  7.786681959E-02
  1.568157000E+00  4.562139976E-03
  6.232900000E-01  2.468879987E-03
  2.408610000E-01  1.106309994E-03
  8.430100000E-02  1.739699991E-04
   s  14
  1.031094600E+05 -4.044999995E-05
  1.528100700E+04 -1.682299998E-04
  3.441539200E+03 -7.084299991E-04
  9.670948300E+02 -2.767999996E-03
  3.140353400E+02 -9.611379987E-03
  1.134423000E+02 -2.833957996E-02
  4.464472700E+01 -6.839343991E-02
  1.894287400E+01 -1.237379298E-01
  8.532743000E+00 -1.512859698E-01
  3.919401000E+00 -9.099909988E-03
  1.568157000E+00  3.716257695E-01
  6.232900000E-01  5.500214393E-01
  2.408610000E-01  2.092318697E-01
  8.430100000E-02  8.074639989E-03
   p   9
  2.453302900E+02  1.024860004E-03
  5.691900500E+01  8.344290032E-03
  1.760456800E+01  4.078927016E-02
  6.274995000E+00  1.351370605E-01
  2.447030000E+00  2.798830811E-01
  9.950600000E-01  3.597966414E-01
  4.039730000E-01  3.055347412E-01
  1.548100000E-01  1.354703905E-01
  5.418400000E-02  2.804449011E-02
 
   2
   s  14
  1.031094600E+05  1.713099991E-04
  1.528100700E+04  7.123999962E-04
  3.441539200E+03  2.990479984E-03
  9.670948300E+02  1.164036994E-02
  3.140353400E+02  3.968642979E-02
  1.134423000E+02  1.128546094E-01
  4.464472700E+01  2.473650687E-01
  1.894287400E+01  3.672702681E-01
  8.532743000E+00  2.896286985E-01
  3.919401000E+00  7.786681959E-02
  1.568157000E+00  4.562139976E-03
  6.232900000E-01  2.468879987E-03
  2.408610000E-01  1.106309994E-03
  8.430100000E-02  1.739699991E-04
   s  14
  1.031094600E+05 -4.044999995E-05
  1.528100700E+04 -1.682299998E-04
  3.441539200E+03 -7.084299991E-04
  9.670948300E+02 -2.767999996E-03
  3.140353400E+02 -9.611379987E-03
  1.134423000E+02 -2.833957996E-02
  4.464472700E+01 -6.839343991E-02
  1.894287400E+01 -1.237379298E-01
  8.532743000E+00 -1.512859698E-01
  3.919401000E+00 -9.099909988E-03
  1.568157000E+00  3.716257695E-01
  6.232900000E-01  5.500214393E-01
  2.408610000E-01  2.092318697E-01
  8.430100000E-02  8.074639989E-03
   p   9
  2.453302900E+02  1.024860004E-03
  5.691900500E+01  8.344290032E-03
  1.760456800E+01  4.078927016E-02
  6.274995000E+00  1.351370605E-01
  2.447030000E+00  2.798830811E-01
  9.950600000E-01  3.597966414E-01
  4.039730000E-01  3.055347412E-01
  1.548100000E-01  1.354703905E-01
  5.418400000E-02  2.804449011E-02
 
[MO]
Sym=     1a  
Ene=   -26.4830
Spin= Alpha
Occup=    1.00000
   1         0.70710116
   2        -0.00243554
   3         0.00000000
   4         0.00000000
   5         0.00008115
   6         0.70710106
   7        -0.00243554
   8        -0.00000000
   9         0.00000000
  10        -0.00008115
Sym=     1a  
Ene=   -26.4830
Spin= Beta
Occup=    1.00000
   1         0.70710116
   2        -0.00243554
   3         0.00000000
   4         0.00000000
   5         0.00008115
   6         0.70710106
   7        -0.00243554
   8        -0.00000000
   9         0.00000000
  10        -0.00008115
Sym=     2a  
Ene=   -26.4830
Spin= Alpha
Occup=    1.00000
   1        -0.70710407
   2         0.00241082
   3         0.00000000
   4         0.00000000
   5        -0.00007178
   6         0.70710417
   7        -0.00241082
   8        -0.00000000
   9        -0.00000000
  10        -0.00007178
Sym=     2a  
Ene=   -26.4830
Spin= Beta
Occup=    1.00000
   1        -0.70710407
   2         0.00241082
   3         0.00000000
   4         0.00000000
   5        -0.00007178
   6         0.70710417
   7        -0.00241082
   8        -0.00000000
   9        -0.00000000
  10        -0.00007178
Sym=     3a  
Ene=    -1.6279
Spin= Alpha
Occup=    1.00000
   1         0.00220706
   2         0.70322997
   3         0.00000000
   4        -0.00000000
   5         0.00907209
   6         0.00220706
   7         0.70322997
   8         0.00000000
   9        -0.00000000
  10        -0.00907209
Sym=     3a  
Ene=    -1.6279
Spin= Beta
Occup=    1.00000
   1         0.00220706
   2         0.70322997
   3         0.00000000
   4        -0.00000000
   5         0.00907209
   6         0.00220706
   7         0.70322997
   8         0.00000000
   9        -0.00000000
  10        -0.00907209
Sym=     4a  
Ene=    -1.6123
Spin= Alpha
Occup=    1.00000
   1        -0.00258348
   2        -0.71008948
   3         0.00000000
   4        -0.00000000
   5         0.01148396
   6         0.00258348
   7         0.71008948
   8        -0.00000000
   9        -0.00000000
  10         0.01148396
Sym=     4a  
Ene=    -1.6123
Spin= Beta
Occup=    1.00000
   1        -0.00258348
   2        -0.71008948
   3         0.00000000
   4        -0.00000000
   5         0.01148396
   6         0.00258348
   7         0.71008948
   8        -0.00000000
   9        -0.00000000
  10         0.01148396
Sym=     5a  
Ene=    -0.7502
Spin= Alpha
Occup=    1.00000
   1         0.00000000
   2         0.00000000
   3         0.70077495
   4        -0.01082919
   5        -0.00000000
   6         0.00000000
   7         0.00000000
   8         0.70077495
   9        -0.01082919
  10         0.00000000
Sym=     5a  
Ene=    -0.7502
Spin= Beta
Occup=    1.00000
   1         0.00000000
   2         0.00000000
   3         0.70077495
   4        -0.01082919
   5        -0.00000000
   6         0.00000000
   7         0.00000000
   8         0.70077495
   9        -0.01082919
  10         0.00000000
Sym=     6a  
Ene=    -0.7502
Spin= Alpha
Occup=    1.00000
   1         0.00000000
   2         0.00000000
   3         0.01082919
   4         0.70077495
   5        -0.00000000
   6        -0.00000000
   7         0.00000000
   8         0.01082919
   9         0.70077495
  10         0.00000000
Sym=     6a  
Ene=    -0.7502
Spin= Beta
Occup=    1.00000
   1         0.00000000
   2         0.00000000
   3         0.01082919
   4         0.70077495
   5        -0.00000000
   6        -0.00000000
   7         0.00000000
   8         0.01082919
   9         0.70077495
  10         0.00000000
Sym=     7a  
Ene=    -0.7421
Spin= Alpha
Occup=    1.00000
   1         0.00000000
   2         0.00000000
   3        -0.56882339
   4         0.43076445
   5         0.00000000
   6        -0.00000000
   7        -0.00000000
   8         0.56882339
   9        -0.43076445
  10         0.00000000
Sym=     7a  
Ene=    -0.7421
Spin= Beta
Occup=    1.00000
   1         0.00000000
   2         0.00000000
   3        -0.56882339
   4         0.43076445
   5         0.00000000
   6        -0.00000000
   7        -0.00000000
   8         0.56882339
   9        -0.43076445
  10         0.00000000
Sym=     8a  
Ene=    -0.7421
Spin= Alpha
Occup=    1.00000
   1         0.00000000
   2         0.00000000
   3        -0.43076445
   4        -0.56882339
   5         0.00000000
   6         0.00000000
   7        -0.00000000
   8         0.43076445
   9         0.56882339
  10         0.00000000
Sym=     8a  
Ene=    -0.7421
Spin= Beta
Occup=    1.00000
   1         0.00000000
   2         0.00000000
   3        -0.43076445
   4        -0.56882339
   5         0.00000000
   6         0.00000000
   7        -0.00000000
   8         0.43076445
   9         0.56882339
  10         0.00000000
Sym=     9a  
Ene=    -0.5385
Spin= Alpha
Occup=    1.00000
   1         0.00201537
   2         0.03536283
   3        -0.00000000
   4        -0.00000000
   5        -0.68768282
   6         0.00201537
   7         0.03536283
   8        -0.00000000
   9        -0.00000000
  10         0.68768282
Sym=     9a  
Ene=    -0.5385
Spin= Beta
Occup=    1.00000
   1         0.00201537
   2         0.03536283
   3        -0.00000000
   4        -0.00000000
   5        -0.68768282
   6         0.00201537
   7         0.03536283
   8        -0.00000000
   9        -0.00000000
  10         0.68768282
Sym=    10a  
Ene=    -0.2597
Spin= Alpha
Occup=    0.00000
   1         0.00200586
   2         0.03940066
   3         0.00000000
   4         0.00000000
   5         0.72925575
   6        -0.00200586
   7        -0.03940066
   8        -0.00000000
   9        -0.00000000
  10         0.72925575
Sym=    10a  
Ene=    -0.2597
Spin= Beta
Occup=    0.00000
   1         0.00200586
   2         0.03940066
   3         0.00000000
   4         0.00000000
   5         0.72925575
   6        -0.00200586
   7        -0.03940066
   8        -0.00000000
   9        -0.00000000
  10         0.72925575
