   This run of MOLCAS is using the pymolcas driver

                             OPE
                             OPE          NMOL  CASOP  ENMOLC A   SO
                 OPE        NMOLC        AS  OP EN  MO LC     AS  OP
                OPENM       OL CA        SO  PE NM  OL CA     SOP EN
                OP EN      MO   LC       AS  OP ENMOL  CASO   PENMOL
                OP  EN     MO   LC       AS  OP EN     MO     LC ASO
               OP   E  NMOL  C  AS       OP  EN MO     LC     AS  OP
               OP  E   NMO   LC AS        OPEN  MO     LCASOP EN   M
               O  PEN   MO  LCA  SO
            OPE   NMO   L   CAS    OP
        OPENMOL  CASOP     ENMOL   CASOPE
     OPENMOLCA   SOPENMOLCASOPEN   MOLCASOPE
    OPENMOLCAS   OP           EN   MOL    CAS
    OPENMOLCAS       OP  ENM        O     LCA
    OPENMOLCAS    OPEN  MOLCASO     P  E  NMO
    OPENMOLCAS     OP               E  N  MOL
    OPENMOLCA   SO           PENM   O  L  CAS    OPEN    MO    LCAS
    OPENMOLCA   SOP           ENM   O  L  CAS   OP  EN  MOLC  AS   O
    OPENMOLCA   SOPE           NM      O  LCA   S      OP  EN MO
    OPENMOLC                AS         O  PEN   M      OL  CA  SOPE
    OPENMO        LCASOPE  NMOL        C  ASO   P      ENMOLC     AS
    OPE     NMO      LCA  SO     P     E   NM   OL  CA SO  PE N   MO
          OPENMOLCA            SOPE   NMO        LCAS  O    P  ENMO
     OPENMOLCASOPENMOLCASOPENMOLCASOPENMOLCA
        OPENMOLCASOPENMOLCASOPENMOLCASOPE
            OPENMOLCASOPENMOLCASOPENM
               OPENMOLCASOPENMOLCA        version: ea724fe96-dirty
                   OPENMOLCASO
                       OPE                tag:

 OpenMolcas is free software; you can redistribute it and/or modify it
 under the terms of the GNU Lesser General Public License version 2.1.
 OpenMolcas is distributed in the hope that it will be useful, but it
 is provided "as is" and without any express or implied warranties.
 For more details see the full text of the license in the file
 LICENSE or in <http://www.gnu.org/licenses/>.

                 Copyright (C) The OpenMolcas Authors
           For the author list and the recommended citation,
                   consult the file CONTRIBUTORS.md

           *************************************************
           * pymolcas version py2.28                       *
           *   build c4a6d18ded8cb6cad61d2372a9abd97c      *
           *   (after the EMIL interpreter by V. Veryazov) *
           *************************************************

configuration info
------------------
C Compiler ID: Intel
C flags: -std=gnu99
Fortran Compiler ID: Intel
Fortran flags: -fpp -i8 -r8 -heap-arrays
Definitions: _MOLCAS_;_I8_;_LINUX_
Parallel: OFF (GA=OFF)


   -------------------------------------------------------------------------------
  |
  |              Project: 5.62
  |       Submitted from: /home/grierjones/DDCASPT2/iron_oxo_DDCASPT2/cluster/5.62
  |         Scratch area: /tmp/5.62
  |      Save outputs to: /home/grierjones/DDCASPT2/iron_oxo_DDCASPT2/cluster/5.62
  |               Molcas: /home/grierjones/Test/build
  |
  | Scratch area is empty
  |
  |       MOLCAS_DRIVER = /usr/local/pymolcas
  | MOLCAS_KEEP_WORKDIR = NO
  |  MOLCAS_NEW_WORKDIR = YES
  |       MOLCAS_NPROCS = 1
  |        MOLCAS_PRINT = NORMAL
  |       MOLCAS_SOURCE = /home/grierjones/Test/build
  |    MOLCAS_STRUCTURE = 0
  |
   -------------------------------------------------------------------------------

++ ---------   Input file   ---------

&GATEWAY
coord=5.62.xyz
Basis = ANO-RCC-VDZP
Group = nosymm
Expert
End of Input

&SEWARD
End of Input

&SCF
UHF
charge
2
spin
5

>>> COPY $WorkDir/5.62.scf.h5 $CurrDir/

&RASSCF
Title= RASSCF
FileOrb
/home/grierjones/DDCASPT2/iron_oxo_DDCASPT2/cluster/5.61/5.61.RasOrb
NACTEL
10 0 0
RAS2
14
Symmetry
1
Spin
5
charge
2
orblisting
all
ITERation
300 200

>>> COPY $WorkDir/5.62.rasscf.h5 $CurrDir/

>>> COPY $WorkDir/GMJ_Fock_MO.csv $CurrDir/5.62.GMJ_Fock_MO.csv

>>> COPY $WorkDir/GMJ_PT2_Fock_MO.csv $CurrDir/5.62.GMJ_PT2_Fock_MO.csv

&MOTRA
Frozen=0
LUMORB

>>> COPY $WorkDir/GMJ_one_int_indx.csv $CurrDir/5.62.GMJ_one_int_indx.csv

>>> COPY $WorkDir/GMJ_one_int.csv $CurrDir/5.62.GMJ_one_int.csv

>>> COPY $WorkDir/GMJ_two_int_indx.csv $CurrDir/5.62.GMJ_two_int_indx.csv

>>> COPY $WorkDir/GMJ_two_int.csv $CurrDir/5.62.GMJ_two_int.csv

&CASPT2
Frozen
0
MAXITER
50

>>> FOREACH i IN (B,E,F,G,H)

  >>> FOREACH j IN (P,M)

    >>> IF (-FILE GMJ_e2_${i}_${j}.csv)

      >>> COPY $WorkDir/GMJ_RHS_${i}_${j}.csv $CurrDir/GMJ_RHS_${i}_${j}.csv

      >>> COPY $WorkDir/GMJ_IVECW_${i}_${j}.csv $CurrDir/GMJ_IVECW_${i}_${j}.csv

      >>> COPY $WorkDir/GMJ_IVECX_${i}_${j}.csv $CurrDir/GMJ_IVECX_${i}_${j}.csv

      >>> COPY $WorkDir/GMJ_IVECC2_${i}_${j}.csv $CurrDir/GMJ_IVECC2_${i}_${j}.csv

      >>> COPY $WorkDir/GMJ_e2_${i}_${j}.csv $CurrDir/GMJ_e2_${i}_${j}.csv

    >>> END IF

  >>> END FOREACH

>>> END FOREACH

>>> FOREACH i IN (A,C,D)

  >>> IF (-FILE GMJ_e2_$i.csv)

    >>> COPY $WorkDir/GMJ_RHS_$i.csv $CurrDir/GMJ_RHS_$i.csv

    >>> COPY $WorkDir/GMJ_IVECW_$i.csv $CurrDir/GMJ_IVECW_$i.csv

    >>> COPY $WorkDir/GMJ_IVECX_$i.csv $CurrDir/GMJ_IVECX_$i.csv

    >>> COPY $WorkDir/GMJ_IVECC2_$i.csv $CurrDir/GMJ_IVECC2_$i.csv

    >>> COPY $WorkDir/GMJ_e2_$i.csv $CurrDir/GMJ_e2_$i.csv

  >>> END IF

>>> END FOREACH

-- ----------------------------------

--- Start Module: gateway at Sun Dec 22 22:12:46 2024 ---
 
()()()()()()()()()()()()()()()()()()()()()()()()()()()()()()()()()()()()()()()()()()()()()()()()()()

                                              &GATEWAY

                                   only a single process is used
                       available to each process: 2.0 GB of memory, 1 thread?
()()()()()()()()()()()()()()()()()()()()()()()()()()()()()()()()()()()()()()()()()()()()()()()()()()
 
 ###############################################################################
 ###############################################################################
 ###                                                                         ###
 ###                                                                         ###
 ###                                                                         ###
 ###    WARNING: EXPERT option is ON!                                        ###
 ###                                                                         ###
 ###                                                                         ###
 ###############################################################################
 ###############################################################################
 
++    Symmetry information:
      ---------------------
 
                    Character Table for C1 
 
                             E  
                    a        1  x, y, xy, Rz, z, xz, Ry, yz, Rx, I
--
 
 
++    Basis set information:
      ----------------------
 
 
      Basis set label: O.ANO-RCC...3S2P1D.
 
      Electronic valence basis set:
      ------------------
      Associated Effective Charge   8.000000 au
      Associated Actual Charge      8.000000 au
      Nuclear Model: Point charge
 
      Shell  nPrim  nBasis  Cartesian Spherical Contaminant
         s      14       3        X                  
         p       9       2        X                  
         d       4       1                 X         
 
 
      Basis set label: FE.ANO-RCC...5S4P2D1F.
 
      Electronic valence basis set:
      ------------------
      Associated Effective Charge  26.000000 au
      Associated Actual Charge     26.000000 au
      Nuclear Model: Point charge
 
      Shell  nPrim  nBasis  Cartesian Spherical Contaminant
         s      21       5        X                  
         p      15       4        X                  
         d      10       2                 X         
         f       6       1                 X         
--
 
 
++    Molecular structure info:
      -------------------------
 
                    ************************************************ 
                    **** Cartesian Coordinates / Bohr, Angstrom **** 
                    ************************************************ 
 
     Center  Label                x              y              z                     x              y              z
        1      O1               0.000000       0.000000       6.821193              0.000000       0.000000       3.609620
        2      FE2              0.000000       0.000000      -3.797631              0.000000       0.000000      -2.009620
--
 
 
            Nuclear Potential Energy             19.58785527 au
 
 ###############################################################################
 ###############################################################################
 ###                                                                         ###
 ###                                                                         ###
 ###    There were warnings during the execution                             ###
 ###    Please, check the output with care!                                  ###
 ###                                                                         ###
 ###                                                                         ###
 ###############################################################################
 ###############################################################################
--- Stop Module: gateway at Sun Dec 22 22:12:46 2024 /rc=_RC_ALL_IS_WELL_ ---
*** files: xmldump
    saved to directory /home/grierjones/DDCASPT2/iron_oxo_DDCASPT2/cluster/5.62

--- Start Module: seward at Sun Dec 22 22:12:46 2024 ---
 
()()()()()()()()()()()()()()()()()()()()()()()()()()()()()()()()()()()()()()()()()()()()()()()()()()

                                              &SEWARD

                                   only a single process is used
                       available to each process: 2.0 GB of memory, 1 thread?
()()()()()()()()()()()()()()()()()()()()()()()()()()()()()()()()()()()()()()()()()()()()()()()()()()
 
 ###############################################################################
 ###############################################################################
 ###                                                                         ###
 ###                                                                         ###
 ###                                                                         ###
 ###    WARNING: EXPERT option is ON!                                        ###
 ###                                                                         ###
 ###                                                                         ###
 ###############################################################################
 ###############################################################################
               SEWARD will generate:
                  Multipole Moment integrals up to order  2
                  Kinetic Energy integrals
                  Nuclear Attraction integrals (point charge)
                  One-Electron Hamiltonian integrals
                  Velocity integrals
                  Relativistic Douglas-Kroll-Hess integrals:
                    - Parametrization         : EXP
                    - DKH order of Hamiltonian: 2
                    - DKH order of Properties : 0
                         - multipole moment operators
                         - electric potential operators
                         - contact operators
                  Atomic mean-field integrals
                  Two-Electron Repulsion integrals
 
                   Integrals are discarded if absolute value <: 0.10E-13
                   Integral cutoff threshold is set to       <: 0.10E-15
 
            Nuclear Potential Energy             19.58785527 au
 
 
      Basis set specifications :
      Symmetry species         a  
      Basis functions           48
 
 
  Input file to MOLDEN was generated!
 
 ###############################################################################
 ###############################################################################
 ###                                                                         ###
 ###                                                                         ###
 ###    There were warnings during the execution                             ###
 ###    Please, check the output with care!                                  ###
 ###                                                                         ###
 ###                                                                         ###
 ###############################################################################
 ###############################################################################
--- Stop Module: seward at Sun Dec 22 22:12:47 2024 /rc=_RC_ALL_IS_WELL_ ---
*** files: 5.62.GssOrb 5.62.guessorb.h5 5.62.guessorb.molden xmldump
    saved to directory /home/grierjones/DDCASPT2/iron_oxo_DDCASPT2/cluster/5.62

*** symbolic link created: INPORB -> 5.62.GssOrb
--- Start Module: scf at Sun Dec 22 22:12:47 2024 ---
 
()()()()()()()()()()()()()()()()()()()()()()()()()()()()()()()()()()()()()()()()()()()()()()()()()()

                                                &SCF

                                   only a single process is used
                       available to each process: 2.0 GB of memory, 1 thread?
()()()()()()()()()()()()()()()()()()()()()()()()()()()()()()()()()()()()()()()()()()()()()()()()()()
 
 *** Possible bug in opening file
 *** isFreeUnit resets the unit number
++    Input section:
      --------------
 
      Header of the integral files:
      
       Integrals generated by seward 4.2.0  , Sun Dec 22 22:12:47 2024
 
 
      Cartesian coordinates in Angstrom:
      -----------------------------------------------------
      No.  Label        X            Y            Z        
      -----------------------------------------------------
       1   O1         0.00000000   0.00000000   3.60962000
       2   FE2        0.00000000   0.00000000  -2.00962000
      -----------------------------------------------------
      Nuclear repulsion energy =   19.58785527
--
 
++    Orbital specifications:
      -----------------------
 
      Symmetry species               1
                                     a
      Frozen orbitals                0
      Start temperature = 0.500
      End temperature   = 0.010
      Temperature Factor= 0.460
      Deleted orbitals               0
      Total number of orbitals      48
      Number of basis functions     48
--
 
      Molecular charge                           2.000
 
++    Optimization specifications:
      ----------------------------
 
      SCF Algorithm: Conventional USCF
      D(i)-D(i-1) density differences are used
      Number of density matrices in core                5
      Maximum number of NDDO SCF iterations           400
      Maximum number of HF SCF iterations             400
      Threshold for SCF energy change            0.10E-08
      Threshold for density matrix               0.10E-03
      Threshold for Fock matrix                  0.15E-03
      Threshold for linear dependence            0.10E-08
      Threshold at which DIIS is turned on       0.15E+00
      Threshold at which QNR/C2DIIS is turned on 0.75E-01
      Threshold for Norm(delta) (QNR/C2DIIS)     0.20E-04
      DIIS extrapolation of the SCF procedure
      All orbitals punched on: UHFORB
--
 
      Input vectors read from INPORB
      Orbital file label: *Guess orbitals
 
 
++ Convergence information
                               UHF SCF        iterations: Energy and convergence statistics
 
Iter     Tot. SCF        One-elec.       Two-elec.     Energy      Max Dij or  Max Fij      DNorm      TNorm      AccCon     Time
         Energy          Energy          Energy        Change      Delta Norm                                                in Sec.
 
 The total and one-electron energies are shifted by a value of      1000. a.u.
 
   1  -343.307829742  -873.094200463   510.198515456   0.00E+00    0.16E+00*   0.35E+00*    0.75E+01   0.18E+03   None         0.
   2  -343.486470081  -869.022566976   505.948241630  -0.18E+00*   0.12E+00*   0.14E+00*    0.10E+01   0.18E+03   EDIIS        0.
   3  -341.590368741  -917.191143293   556.012919287   0.19E+01*   0.63E-01*   0.14E+00*    0.18E+01   0.19E+03   EDIIS        0.
   4  -342.864105160  -856.856124036   494.404163611  -0.13E+01*   0.75E-01*   0.60E-01*    0.15E+01   0.17E+03   EDIIS        0.
   5  -344.051284728  -891.129695953   527.490555959  -0.12E+01*   0.24E-01*   0.36E-01*    0.86E+00   0.18E+03   EDIIS        0.
   6  -344.131735821  -862.664286082   498.944694996  -0.80E-01*   0.13E+00*   0.13E+00*    0.18E+01   0.17E+03   EDIIS        0.
   7  -343.594506654  -901.851001689   538.668639770   0.54E+00*   0.35E-01*   0.43E-01*    0.17E+01   0.18E+03   EDIIS        0.
   8  -344.914897950  -880.609834892   516.107081677  -0.13E+01*   0.27E+00*   0.17E+00*    0.21E+01   0.18E+03   EDIIS        0.
   9  -345.197185236  -868.789654379   504.004613878  -0.28E+00*   0.25E+00*   0.38E+00*    0.17E+01   0.18E+03   EDIIS        0.
  10  -345.092312105  -889.933146300   525.252978929   0.10E+00*   0.11E+00*   0.84E-01*    0.21E+01   0.18E+03   EDIIS        0.
  11  -345.289408968  -872.094361463   507.217097230  -0.20E+00*   0.95E-01*   0.70E-01*    0.63E+00   0.18E+03   EDIIS        0.
  12  -345.297990007  -873.413033652   508.527188380  -0.86E-02*   0.31E-01*   0.26E-01*    0.23E+00   0.18E+03   EDIIS        0.
 
       Fermi aufbau procedure completed!
      nOcc(alpha)=   18
      nOcc(beta) =   14
 
  13  -345.299251741  -872.927147004   508.040039998  -0.13E-02*   0.19E-01*   0.11E-01*    0.86E-01   0.18E+03   EDIIS        0.
  14  -345.299549166  -873.144069438   508.256665007  -0.30E-03*   0.84E-02*   0.48E-02*    0.41E-01   0.18E+03   EDIIS        0.
  15  -345.299635377  -873.060901588   508.173410946  -0.86E-04*   0.57E-02*   0.32E-02*    0.21E-01   0.18E+03   EDIIS        0.
  16  -345.299663072  -873.094494513   508.206976175  -0.28E-04*   0.31E-02*   0.18E-02*    0.11E-01   0.18E+03   EDIIS        0.
  17  -345.299672336  -873.081328944   508.193801343  -0.93E-05*   0.57E-03*   0.22E-02*    0.65E-02   0.18E+03   c2DIIS       0.
  18  -345.299676957  -873.091719247   508.204187025  -0.46E-05*   0.60E-03*   0.21E-03*    0.19E-02   0.18E+03   QNRc2DIIS    0.
  19  -345.299677101  -873.082126987   508.194594621  -0.14E-06*   0.28E-03*   0.96E-04     0.83E-03   0.18E+03   QNRc2DIIS    0.
  20  -345.299677139  -873.084043772   508.196511368  -0.38E-07*   0.31E-03*   0.52E-04     0.39E-03   0.18E+03   QNRc2DIIS    0.
  21  -345.299677150  -873.084765513   508.197233098  -0.11E-07*   0.14E-04    0.93E-06     0.43E-03   0.18E+03   QNRc2DIIS    0.
  22  -345.299677150  -873.084780841   508.197248425  -0.77E-11    0.23E-05    0.90E-06     0.20E-04   0.18E+03   QNRc2DIIS    0.
 
       Convergence after 22 Macro Iterations
--
 
 *****************************************************************************************************************************
 *                                                                                                                           *
 *                                             SCF/KS-DFT Program, Final results                                             *
 *                                                                                                                           *
 *                                                                                                                           *
 *                                                                                                                           *
 *                                                       Final Results                                                       *
 *                                                                                                                           *
 *****************************************************************************************************************************
 
::    Total SCF energy                              -1345.2996771504
      One-electron energy                           -1873.0847808407
      Two-electron energy                             508.1972484253
      Nuclear repulsion energy                         19.5878552650
      Kinetic energy (interpolated)                  1399.7967850495
      Virial theorem                                    0.9610678432
      Total spin, S(S+1)                                8.0094477458
      Total spin, S                                     2.3739254941
      Max non-diagonal density matrix element           0.0000009597
      Max non-diagonal Fock matrix element              0.0000001950
 
 
      All orbitals with orbital energies smaller than  E(LUMO)+0.5 are printed
 
++    Molecular orbitals:
      -------------------
 
      Title: UHF orbitals (alpha)

      Molecular orbitals for symmetry species 1: a  
 
          Orbital            1         2         3         4         5         6         7         8         9        10    
          Energy         -264.6174  -33.4950  -28.5588  -28.5588  -28.5588  -20.8233   -5.4431   -3.9830   -3.9830   -3.9830
          Occ. No.          1.0000    1.0000    1.0000    1.0000    1.0000    1.0000    1.0000    1.0000    1.0000    1.0000
 
        1 O1     1s         0.0000   -0.0000   -0.0000    0.0000   -0.0000    1.0000   -0.0000    0.0000    0.0000   -0.0000
        2 O1     2s         0.0000   -0.0000   -0.0000    0.0000    0.0000   -0.0022   -0.0002    0.0000    0.0000   -0.0001
        3 O1     3s         0.0000   -0.0000   -0.0000    0.0000    0.0000    0.0004   -0.0003    0.0000    0.0000   -0.0001
        4 O1     2px       -0.0000    0.0000    0.0000    0.0000   -0.0000   -0.0000   -0.0000   -0.0000   -0.0000    0.0000
        5 O1     3px        0.0000   -0.0000    0.0000    0.0000   -0.0000   -0.0000    0.0000   -0.0001   -0.0000   -0.0000
        6 O1     2py       -0.0000    0.0000   -0.0000   -0.0000   -0.0000   -0.0000   -0.0000    0.0000   -0.0000   -0.0000
        7 O1     3py       -0.0000    0.0000   -0.0000   -0.0000   -0.0000    0.0000   -0.0000    0.0000   -0.0001   -0.0000
        8 O1     2pz        0.0000    0.0000    0.0000   -0.0000   -0.0000   -0.0001    0.0002    0.0000   -0.0000    0.0001
        9 O1     3pz        0.0000    0.0000    0.0001   -0.0000   -0.0000    0.0000    0.0005   -0.0000   -0.0000    0.0002
       10 O1     3d2-       0.0000    0.0000   -0.0000   -0.0000    0.0000    0.0000    0.0000   -0.0000    0.0000    0.0000
       11 O1     3d1-      -0.0000    0.0000    0.0000    0.0000    0.0000    0.0000    0.0000   -0.0000    0.0000    0.0000
       12 O1     3d0       -0.0000   -0.0000   -0.0000    0.0000    0.0000    0.0009   -0.0000    0.0000    0.0000   -0.0000
       13 O1     3d1+      -0.0000   -0.0000   -0.0000   -0.0000    0.0000   -0.0000   -0.0000    0.0000    0.0000   -0.0000
       14 O1     3d2+      -0.0000   -0.0000    0.0000    0.0000    0.0000    0.0000   -0.0000   -0.0000   -0.0000    0.0000
       15 FE2    1s         1.0000   -0.0000   -0.0000   -0.0000    0.0000    0.0000    0.0000    0.0000   -0.0000    0.0000
       16 FE2    2s         0.0000    1.0000   -0.0000    0.0000    0.0000    0.0000   -0.0035   -0.0000    0.0000   -0.0000
       17 FE2    3s        -0.0000    0.0035    0.0000   -0.0000   -0.0000   -0.0000    0.9999   -0.0000    0.0000   -0.0000
       18 FE2    4s         0.0000   -0.0003    0.0000   -0.0000   -0.0000   -0.0000   -0.0076    0.0000   -0.0000    0.0000
       19 FE2    5s        -0.0000    0.0004    0.0000   -0.0000   -0.0000   -0.0000    0.0082   -0.0000   -0.0000    0.0000
       20 FE2    2px       -0.0000   -0.0000   -0.0000   -0.2794    0.9602    0.0000    0.0000   -0.0035   -0.0001   -0.0000
       21 FE2    3px       -0.0000    0.0000   -0.0000   -0.0010    0.0033   -0.0000    0.0000    0.9992    0.0291    0.0000
       22 FE2    4px        0.0000    0.0000    0.0000    0.0002   -0.0006    0.0000   -0.0000   -0.0192   -0.0006   -0.0000
       23 FE2    5px       -0.0000    0.0000   -0.0000   -0.0004    0.0014    0.0000   -0.0000    0.0182    0.0005    0.0000
       24 FE2    2py        0.0000   -0.0000    0.0000    0.9602    0.2794    0.0000    0.0000    0.0001   -0.0035   -0.0000
       25 FE2    3py        0.0000   -0.0000    0.0000    0.0033    0.0010    0.0000    0.0000   -0.0291    0.9992    0.0000
       26 FE2    4py        0.0000   -0.0000   -0.0000   -0.0006   -0.0002   -0.0000   -0.0000    0.0006   -0.0192   -0.0000
       27 FE2    5py       -0.0000    0.0000    0.0000    0.0014    0.0004    0.0000    0.0000   -0.0005    0.0182    0.0000
       28 FE2    2pz        0.0000    0.0000    1.0000   -0.0000   -0.0000    0.0000   -0.0000    0.0000    0.0000   -0.0035
       29 FE2    3pz       -0.0000    0.0000    0.0035   -0.0000   -0.0000   -0.0000    0.0000   -0.0000   -0.0000    0.9996
       30 FE2    4pz        0.0000    0.0000   -0.0006    0.0000    0.0000   -0.0000    0.0001    0.0000    0.0000   -0.0192
       31 FE2    5pz        0.0000    0.0000    0.0015   -0.0000   -0.0000   -0.0000    0.0000   -0.0000   -0.0000    0.0182
       32 FE2    3d2-       0.0000   -0.0000   -0.0000   -0.0000    0.0000    0.0000   -0.0000   -0.0000   -0.0000    0.0000
       33 FE2    4d2-       0.0000   -0.0000   -0.0000   -0.0000   -0.0000   -0.0000    0.0000    0.0000    0.0000   -0.0000
       34 FE2    3d1-      -0.0000   -0.0000    0.0000    0.0000    0.0000   -0.0000    0.0000   -0.0000    0.0000    0.0000
       35 FE2    4d1-       0.0000    0.0000    0.0000    0.0000    0.0000    0.0000    0.0000    0.0000   -0.0000   -0.0000
       36 FE2    3d0        0.0000    0.0000    0.0000   -0.0000   -0.0000   -0.0000   -0.0000    0.0000   -0.0000    0.0000
       37 FE2    4d0        0.0000    0.0000    0.0000   -0.0000   -0.0000   -0.0000    0.0000    0.0000    0.0000   -0.0000
       38 FE2    3d1+       0.0000    0.0000   -0.0000   -0.0000    0.0000   -0.0000    0.0000    0.0000    0.0000   -0.0000
       39 FE2    4d1+       0.0000   -0.0000   -0.0000   -0.0000    0.0000    0.0000   -0.0000   -0.0000   -0.0000    0.0000
       40 FE2    3d2+      -0.0000    0.0000   -0.0000    0.0000   -0.0000    0.0000   -0.0000   -0.0000   -0.0000    0.0000
       41 FE2    4d2+       0.0000   -0.0000    0.0000   -0.0000   -0.0000   -0.0000    0.0000    0.0000   -0.0000   -0.0000
       42 FE2    4f3-      -0.0000    0.0000    0.0000   -0.0000   -0.0000   -0.0000    0.0000    0.0000    0.0000   -0.0000
       43 FE2    4f2-      -0.0000   -0.0000    0.0000    0.0000   -0.0000    0.0000   -0.0000    0.0000   -0.0000    0.0000
       44 FE2    4f1-      -0.0000    0.0000   -0.0000    0.0000    0.0000   -0.0000   -0.0000    0.0000   -0.0000    0.0000
       45 FE2    4f0        0.0000    0.0000    0.0000   -0.0000    0.0000   -0.0000    0.0000   -0.0000   -0.0000   -0.0000
       46 FE2    4f1+       0.0000   -0.0000   -0.0000   -0.0000    0.0000   -0.0000   -0.0000   -0.0000   -0.0000   -0.0000
       47 FE2    4f2+       0.0000    0.0000    0.0000   -0.0000   -0.0000   -0.0000    0.0000    0.0000   -0.0000    0.0000
       48 FE2    4f3+       0.0000   -0.0000    0.0000   -0.0000    0.0000    0.0000   -0.0000    0.0000    0.0000   -0.0000
 
          Orbital           11        12        13        14        15        16        17        18        19        20    
          Energy           -1.6637   -1.6637   -1.6637   -1.6637   -1.6637   -1.2681   -0.9508   -0.7080   -0.4826   -0.4826
          Occ. No.          1.0000    1.0000    1.0000    1.0000    1.0000    1.0000    1.0000    1.0000    0.0000    0.0000
 
        1 O1     1s         0.0000    0.0000   -0.0000    0.0000   -0.0000    0.0021    0.0004    0.0001    0.0000   -0.0000
        2 O1     2s         0.0002    0.0000   -0.0000    0.0000   -0.0000    0.9992    0.0038    0.0145    0.0000   -0.0000
        3 O1     3s         0.0003    0.0000   -0.0000    0.0000   -0.0000    0.0222    0.0039   -0.0089    0.0000   -0.0000
        4 O1     2px       -0.0000    0.0000   -0.0000    0.0001   -0.0000   -0.0000    0.0000   -0.0000   -0.0008   -0.0004
        5 O1     3px       -0.0000    0.0000   -0.0000    0.0003   -0.0000    0.0000   -0.0000    0.0000   -0.0018   -0.0009
        6 O1     2py        0.0000   -0.0000   -0.0000    0.0000    0.0001    0.0000   -0.0000    0.0000    0.0004   -0.0008
        7 O1     3py        0.0000   -0.0000   -0.0000    0.0000    0.0003   -0.0000   -0.0000    0.0000    0.0009   -0.0018
        8 O1     2pz       -0.0004   -0.0000    0.0000   -0.0000    0.0000   -0.0138   -0.0051    0.9984   -0.0000    0.0000
        9 O1     3pz       -0.0008   -0.0000    0.0000   -0.0000    0.0000   -0.0050   -0.0064    0.0499   -0.0000    0.0000
       10 O1     3d2-      -0.0000    0.0000   -0.0000   -0.0000    0.0000   -0.0000   -0.0000    0.0000   -0.0000   -0.0000
       11 O1     3d1-      -0.0000    0.0000    0.0000   -0.0000   -0.0000    0.0000    0.0000   -0.0000   -0.0000    0.0000
       12 O1     3d0        0.0001    0.0000   -0.0000    0.0000   -0.0000    0.0294    0.0002   -0.0043   -0.0000   -0.0000
       13 O1     3d1+      -0.0000   -0.0000    0.0000   -0.0000    0.0000   -0.0000   -0.0000   -0.0000    0.0000    0.0000
       14 O1     3d2+       0.0000    0.0000    0.0000   -0.0000    0.0000    0.0000    0.0000   -0.0000   -0.0000    0.0000
       15 FE2    1s        -0.0000   -0.0000    0.0000   -0.0000    0.0000   -0.0000   -0.0000    0.0000   -0.0000    0.0000
       16 FE2    2s        -0.0000   -0.0000    0.0000   -0.0000    0.0000   -0.0000    0.0004    0.0001   -0.0000    0.0000
       17 FE2    3s         0.0000    0.0000   -0.0000   -0.0000   -0.0000   -0.0000    0.0101    0.0004   -0.0000    0.0000
       18 FE2    4s        -0.0001   -0.0000    0.0000    0.0000    0.0000    0.0000    0.9284    0.0047   -0.0000    0.0000
       19 FE2    5s        -0.0001   -0.0000    0.0000   -0.0000    0.0000   -0.0004   -0.3712   -0.0018   -0.0000    0.0000
       20 FE2    2px        0.0000   -0.0000   -0.0000   -0.0000    0.0000   -0.0000    0.0000    0.0000    0.0004    0.0002
       21 FE2    3px        0.0000   -0.0000    0.0000   -0.0000    0.0000   -0.0000   -0.0000   -0.0000    0.0166    0.0084
       22 FE2    4px        0.0000   -0.0000   -0.0000   -0.0001    0.0000   -0.0000    0.0000   -0.0000    0.8919    0.4507
       23 FE2    5px       -0.0000   -0.0000    0.0000   -0.0000    0.0000    0.0000    0.0000    0.0000    0.0288    0.0146
       24 FE2    2py       -0.0000   -0.0000   -0.0000   -0.0000   -0.0000   -0.0000   -0.0000   -0.0000   -0.0002    0.0004
       25 FE2    3py        0.0000    0.0000    0.0000   -0.0000   -0.0000    0.0000    0.0000   -0.0000   -0.0084    0.0166
       26 FE2    4py       -0.0000    0.0000   -0.0000   -0.0000   -0.0001   -0.0000    0.0000   -0.0000   -0.4507    0.8919
       27 FE2    5py       -0.0000    0.0000    0.0000   -0.0000   -0.0000   -0.0000    0.0000   -0.0000   -0.0146    0.0288
       28 FE2    2pz       -0.0000   -0.0000    0.0000    0.0000    0.0000   -0.0000   -0.0000    0.0000   -0.0000    0.0000
       29 FE2    3pz       -0.0000   -0.0000    0.0000   -0.0000    0.0000   -0.0000   -0.0001    0.0001   -0.0000    0.0000
       30 FE2    4pz       -0.0002   -0.0000    0.0000   -0.0000    0.0000   -0.0001   -0.0033   -0.0063   -0.0000    0.0000
       31 FE2    5pz       -0.0000   -0.0000    0.0000   -0.0000    0.0000   -0.0001   -0.0003   -0.0002   -0.0000    0.0000
       32 FE2    3d2-      -0.0000    0.9907   -0.0010   -0.0000    0.0000    0.0000   -0.0000   -0.0000   -0.0000    0.0000
       33 FE2    4d2-       0.0000   -0.1364    0.0001    0.0000   -0.0000    0.0000   -0.0000    0.0000    0.0000    0.0000
       34 FE2    3d1-       0.0000   -0.0000   -0.0000    0.0726    0.9880   -0.0000   -0.0000   -0.0000   -0.0000    0.0000
       35 FE2    4d1-      -0.0000    0.0000    0.0000   -0.0100   -0.1360   -0.0000    0.0000   -0.0000    0.0002   -0.0003
       36 FE2    3d0        0.9906    0.0000   -0.0000    0.0000   -0.0000   -0.0000   -0.0001    0.0002   -0.0000   -0.0000
       37 FE2    4d0       -0.1364   -0.0000    0.0000   -0.0000    0.0000    0.0000   -0.0004   -0.0008    0.0000   -0.0000
       38 FE2    3d1+      -0.0000    0.0000   -0.0000    0.9880   -0.0726   -0.0000   -0.0000   -0.0000    0.0000    0.0000
       39 FE2    4d1+       0.0000   -0.0000    0.0000   -0.1360    0.0100   -0.0000   -0.0000    0.0000   -0.0003   -0.0002
       40 FE2    3d2+       0.0000    0.0010    0.9907    0.0000    0.0000    0.0000    0.0000   -0.0000    0.0000    0.0000
       41 FE2    4d2+      -0.0000   -0.0001   -0.1364   -0.0000   -0.0000    0.0000    0.0000   -0.0000    0.0000   -0.0000
       42 FE2    4f3-      -0.0000   -0.0000   -0.0000   -0.0000    0.0000   -0.0000   -0.0000   -0.0000    0.0000   -0.0000
       43 FE2    4f2-      -0.0000    0.0000   -0.0000   -0.0000    0.0000    0.0000   -0.0000   -0.0000    0.0000    0.0000
       44 FE2    4f1-       0.0000   -0.0000   -0.0000    0.0000    0.0000   -0.0000    0.0000    0.0000    0.0000   -0.0000
       45 FE2    4f0        0.0000    0.0000   -0.0000    0.0000   -0.0000    0.0000   -0.0000   -0.0000    0.0000   -0.0000
       46 FE2    4f1+      -0.0000    0.0000   -0.0000    0.0000   -0.0000    0.0000    0.0000   -0.0000   -0.0000   -0.0000
       47 FE2    4f2+       0.0000    0.0000    0.0000    0.0000    0.0000    0.0000   -0.0000   -0.0000    0.0000   -0.0000
       48 FE2    4f3+       0.0000    0.0000   -0.0000   -0.0000   -0.0000    0.0000    0.0000   -0.0000    0.0000    0.0000
 
          Orbital           21        22        23        24    
          Energy           -0.4822   -0.2487   -0.0992   -0.0992
          Occ. No.          0.0000    0.0000    0.0000    0.0000
 
        1 O1     1s        -0.0007   -0.0021    0.0000    0.0000
        2 O1     2s        -0.0104   -0.0292    0.0000   -0.0000
        3 O1     3s        -0.0044   -0.0055    0.0000    0.0000
        4 O1     2px        0.0000    0.0000    0.9447   -0.0172
        5 O1     3px        0.0000    0.0000    0.3273   -0.0059
        6 O1     2py        0.0000    0.0000    0.0172    0.9447
        7 O1     3py        0.0000    0.0000    0.0059    0.3273
        8 O1     2pz        0.0252    0.0390   -0.0000   -0.0000
        9 O1     3pz        0.0095    0.0070   -0.0000   -0.0000
       10 O1     3d2-       0.0000    0.0000   -0.0000    0.0000
       11 O1     3d1-      -0.0000   -0.0000   -0.0001   -0.0042
       12 O1     3d0       -0.0001    0.0001    0.0000    0.0000
       13 O1     3d1+      -0.0000   -0.0000   -0.0042    0.0001
       14 O1     3d2+      -0.0000   -0.0000    0.0000    0.0000
       15 FE2    1s         0.0000    0.0000   -0.0000   -0.0000
       16 FE2    2s         0.0000   -0.0002   -0.0000   -0.0000
       17 FE2    3s         0.0001   -0.0047    0.0000   -0.0000
       18 FE2    4s         0.0028    0.3710   -0.0000   -0.0000
       19 FE2    5s        -0.0008    0.9308   -0.0000   -0.0000
       20 FE2    2px       -0.0000    0.0000   -0.0000    0.0000
       21 FE2    3px       -0.0000   -0.0000   -0.0002    0.0000
       22 FE2    4px       -0.0000    0.0000   -0.0063    0.0001
       23 FE2    5px       -0.0000    0.0000    0.0014   -0.0000
       24 FE2    2py       -0.0000   -0.0000   -0.0000   -0.0000
       25 FE2    3py       -0.0000   -0.0000   -0.0000   -0.0002
       26 FE2    4py       -0.0000   -0.0000   -0.0001   -0.0063
       27 FE2    5py       -0.0000    0.0000    0.0000    0.0014
       28 FE2    2pz        0.0005    0.0000    0.0000   -0.0000
       29 FE2    3pz        0.0186    0.0001   -0.0000   -0.0000
       30 FE2    4pz        1.0002    0.0025   -0.0000   -0.0000
       31 FE2    5pz        0.0324   -0.0003    0.0000    0.0000
       32 FE2    3d2-       0.0000   -0.0000    0.0000   -0.0000
       33 FE2    4d2-      -0.0000    0.0000    0.0000   -0.0000
       34 FE2    3d1-      -0.0000    0.0000    0.0000    0.0009
       35 FE2    4d1-       0.0000    0.0000    0.0001    0.0080
       36 FE2    3d0        0.0000   -0.0001    0.0000    0.0000
       37 FE2    4d0       -0.0006   -0.0008    0.0000    0.0000
       38 FE2    3d1+      -0.0000    0.0000    0.0009   -0.0000
       39 FE2    4d1+      -0.0000   -0.0000    0.0080   -0.0001
       40 FE2    3d2+       0.0000    0.0000    0.0000   -0.0000
       41 FE2    4d2+       0.0000    0.0000   -0.0000   -0.0000
       42 FE2    4f3-       0.0000    0.0000    0.0000   -0.0000
       43 FE2    4f2-      -0.0000   -0.0000   -0.0000    0.0000
       44 FE2    4f1-       0.0000    0.0000    0.0000    0.0001
       45 FE2    4f0       -0.0000   -0.0000    0.0000    0.0000
       46 FE2    4f1+       0.0000   -0.0000    0.0001   -0.0000
       47 FE2    4f2+       0.0000    0.0000   -0.0000    0.0000
       48 FE2    4f3+      -0.0000    0.0000   -0.0000    0.0000
--
 
 
  Input file to MOLDEN was generated!
 
 
++    Static properties:
      ------------------
 
 
      LoProp Charges per center
 

                   O1       FE2   
      Nuclear      8.0000  26.0000
      Electronic  -8.0001 -23.9999
 
      Total       -0.0001   2.0001
--
 
 
      All orbitals with orbital energies smaller than  E(LUMO)+0.5 are printed
 
++    Molecular orbitals:
      -------------------
 
      Title: UHF orbitals (beta)

      Molecular orbitals for symmetry species 1: a  
 
          Orbital            1         2         3         4         5         6         7         8         9        10    
          Energy         -264.6095  -33.3183  -28.3863  -28.3863  -28.3863  -20.9083   -4.9690   -3.4205   -3.4205   -3.4205
          Occ. No.          1.0000    1.0000    1.0000    1.0000    1.0000    1.0000    1.0000    1.0000    1.0000    1.0000
 
        1 O1     1s         0.0000    0.0000    0.0000   -0.0000   -0.0000    1.0000   -0.0000    0.0000   -0.0000    0.0000
        2 O1     2s         0.0000    0.0000    0.0000   -0.0000   -0.0000    0.0019   -0.0001    0.0000   -0.0000    0.0001
        3 O1     3s         0.0000    0.0000    0.0000   -0.0000   -0.0000   -0.0017   -0.0001    0.0000   -0.0000    0.0001
        4 O1     2px       -0.0000    0.0000   -0.0000   -0.0000    0.0000   -0.0000   -0.0000    0.0000   -0.0000    0.0000
        5 O1     3px        0.0000   -0.0000   -0.0000   -0.0000    0.0000   -0.0000    0.0000    0.0001   -0.0000   -0.0000
        6 O1     2py       -0.0000    0.0000    0.0000    0.0000    0.0000   -0.0000   -0.0000    0.0000    0.0000   -0.0000
        7 O1     3py       -0.0000    0.0000    0.0000    0.0000    0.0000    0.0000   -0.0000    0.0000    0.0001    0.0000
        8 O1     2pz        0.0000   -0.0000   -0.0000    0.0000    0.0000   -0.0001    0.0001    0.0000    0.0000   -0.0001
        9 O1     3pz        0.0000   -0.0000   -0.0001    0.0000    0.0000    0.0001    0.0002   -0.0000    0.0000   -0.0002
       10 O1     3d2-       0.0000    0.0000   -0.0000   -0.0000    0.0000    0.0000    0.0000   -0.0000    0.0000    0.0000
       11 O1     3d1-      -0.0000    0.0000   -0.0000   -0.0000   -0.0000   -0.0000    0.0000   -0.0000   -0.0000   -0.0000
       12 O1     3d0       -0.0000    0.0000    0.0000   -0.0000   -0.0000   -0.0004   -0.0000    0.0000   -0.0000    0.0000
       13 O1     3d1+      -0.0000   -0.0000    0.0000    0.0000   -0.0000    0.0000   -0.0000   -0.0000    0.0000   -0.0000
       14 O1     3d2+      -0.0000   -0.0000    0.0000    0.0000    0.0000   -0.0000   -0.0000   -0.0000   -0.0000    0.0000
       15 FE2    1s         1.0000   -0.0000   -0.0000    0.0000    0.0000    0.0000    0.0000    0.0000   -0.0000    0.0000
       16 FE2    2s         0.0000    1.0000   -0.0000    0.0000    0.0000    0.0000    0.0011   -0.0000    0.0000   -0.0000
       17 FE2    3s        -0.0000   -0.0011    0.0000   -0.0000   -0.0000    0.0000    1.0000   -0.0000    0.0000   -0.0001
       18 FE2    4s         0.0000    0.0002   -0.0000    0.0000    0.0000    0.0000   -0.0028    0.0000    0.0000   -0.0000
       19 FE2    5s        -0.0000   -0.0002   -0.0000    0.0000    0.0000    0.0000    0.0033   -0.0000    0.0000   -0.0000
       20 FE2    2px       -0.0000   -0.0000   -0.0000   -0.2151    0.9766    0.0000    0.0000    0.0032   -0.0000   -0.0000
       21 FE2    3px       -0.0000    0.0000    0.0000    0.0007   -0.0031   -0.0000    0.0000    0.9998   -0.0126   -0.0000
       22 FE2    4px        0.0000    0.0000   -0.0000   -0.0001    0.0004    0.0000   -0.0000   -0.0114    0.0001    0.0000
       23 FE2    5px       -0.0000    0.0000    0.0000    0.0002   -0.0011    0.0000   -0.0000    0.0055   -0.0001   -0.0000
       24 FE2    2py        0.0000   -0.0000    0.0000    0.9766    0.2151    0.0000    0.0000    0.0000    0.0032    0.0000
       25 FE2    3py        0.0000   -0.0000   -0.0000   -0.0031   -0.0007    0.0000   -0.0000    0.0126    0.9998    0.0000
       26 FE2    4py        0.0000   -0.0000    0.0000    0.0004    0.0001   -0.0000    0.0000   -0.0001   -0.0114   -0.0000
       27 FE2    5py       -0.0000    0.0000   -0.0000   -0.0011   -0.0002    0.0000    0.0000    0.0001    0.0055    0.0000
       28 FE2    2pz        0.0000    0.0000    1.0000   -0.0000   -0.0000    0.0000   -0.0000    0.0000   -0.0000    0.0032
       29 FE2    3pz       -0.0000    0.0000   -0.0032    0.0000    0.0000    0.0000    0.0001    0.0000   -0.0000    0.9999
       30 FE2    4pz        0.0000   -0.0000    0.0004   -0.0000   -0.0000    0.0000    0.0000   -0.0000    0.0000   -0.0115
       31 FE2    5pz        0.0000   -0.0000   -0.0011    0.0000    0.0000    0.0000    0.0000    0.0000   -0.0000    0.0055
       32 FE2    3d2-       0.0000   -0.0000    0.0000    0.0000    0.0000    0.0000   -0.0000   -0.0000   -0.0000    0.0000
       33 FE2    4d2-       0.0000   -0.0000   -0.0000   -0.0000   -0.0000   -0.0000    0.0000    0.0000    0.0000   -0.0000
       34 FE2    3d1-      -0.0000   -0.0000    0.0000    0.0000    0.0000   -0.0000   -0.0000    0.0000    0.0000    0.0000
       35 FE2    4d1-       0.0000    0.0000   -0.0000   -0.0000   -0.0000   -0.0000    0.0000   -0.0000   -0.0000   -0.0000
       36 FE2    3d0        0.0000   -0.0000    0.0000   -0.0000   -0.0000    0.0000   -0.0000    0.0000   -0.0000    0.0000
       37 FE2    4d0        0.0000   -0.0000   -0.0000    0.0000    0.0000    0.0000    0.0000    0.0000    0.0000   -0.0000
       38 FE2    3d1+       0.0000    0.0000   -0.0000   -0.0000    0.0000   -0.0000    0.0000    0.0000   -0.0000   -0.0000
       39 FE2    4d1+       0.0000   -0.0000    0.0000    0.0000   -0.0000    0.0000   -0.0000   -0.0000    0.0000    0.0000
       40 FE2    3d2+      -0.0000    0.0000   -0.0000    0.0000    0.0000   -0.0000   -0.0000   -0.0000    0.0000    0.0000
       41 FE2    4d2+       0.0000   -0.0000    0.0000   -0.0000   -0.0000   -0.0000    0.0000    0.0000   -0.0000   -0.0000
       42 FE2    4f3-      -0.0000    0.0000    0.0000   -0.0000   -0.0000   -0.0000   -0.0000    0.0000   -0.0000   -0.0000
       43 FE2    4f2-      -0.0000   -0.0000    0.0000    0.0000   -0.0000    0.0000   -0.0000    0.0000   -0.0000    0.0000
       44 FE2    4f1-      -0.0000    0.0000   -0.0000   -0.0000   -0.0000   -0.0000   -0.0000   -0.0000   -0.0000    0.0000
       45 FE2    4f0        0.0000   -0.0000   -0.0000    0.0000    0.0000    0.0000   -0.0000   -0.0000    0.0000   -0.0000
       46 FE2    4f1+       0.0000   -0.0000   -0.0000    0.0000   -0.0000   -0.0000    0.0000   -0.0000    0.0000    0.0000
       47 FE2    4f2+       0.0000    0.0000    0.0000   -0.0000   -0.0000   -0.0000    0.0000    0.0000   -0.0000    0.0000
       48 FE2    4f3+       0.0000   -0.0000    0.0000   -0.0000    0.0000    0.0000   -0.0000    0.0000    0.0000   -0.0000
 
          Orbital           11        12        13        14        15        16        17        18        19        20    
          Energy           -1.6105   -0.9009   -0.9009   -0.8025   -0.5743   -0.5724   -0.5724   -0.5724   -0.5724   -0.5723
          Occ. No.          1.0000    1.0000    1.0000    1.0000    0.0000    0.0000    0.0000    0.0000    0.0000    0.0000
 
        1 O1     1s        -0.0020   -0.0000    0.0000    0.0000    0.0001    0.0000    0.0000   -0.0000   -0.0000   -0.0000
        2 O1     2s         0.9993    0.0000   -0.0000    0.0108    0.0006    0.0000   -0.0000   -0.0000   -0.0000   -0.0008
        3 O1     3s        -0.0284    0.0000    0.0000   -0.0083    0.0010    0.0000   -0.0000   -0.0000   -0.0000   -0.0003
        4 O1     2px       -0.0000    0.9947   -0.0909   -0.0000   -0.0000   -0.0000    0.0000   -0.0004    0.0000    0.0000
        5 O1     3px        0.0000   -0.0469    0.0043    0.0000   -0.0000   -0.0000   -0.0000   -0.0004    0.0000    0.0000
        6 O1     2py       -0.0000    0.0909    0.9947    0.0000    0.0000    0.0000    0.0000   -0.0000   -0.0004    0.0000
        7 O1     3py        0.0000   -0.0043   -0.0469   -0.0000    0.0000    0.0000    0.0000   -0.0000   -0.0004    0.0000
        8 O1     2pz       -0.0112   -0.0000   -0.0000    0.9999    0.0042   -0.0000    0.0000    0.0000    0.0000    0.0035
        9 O1     3pz       -0.0024    0.0000    0.0000   -0.0093   -0.0017   -0.0000   -0.0000    0.0000    0.0000    0.0015
       10 O1     3d2-      -0.0000   -0.0000    0.0000    0.0000    0.0000    0.0000    0.0000   -0.0000    0.0000   -0.0000
       11 O1     3d1-      -0.0000   -0.0004   -0.0039   -0.0000    0.0000   -0.0000    0.0000    0.0000    0.0000   -0.0000
       12 O1     3d0       -0.0212    0.0000    0.0000   -0.0052    0.0001    0.0000   -0.0000   -0.0000   -0.0000   -0.0000
       13 O1     3d1+       0.0000   -0.0039    0.0004    0.0000   -0.0000    0.0000    0.0000    0.0000   -0.0000   -0.0000
       14 O1     3d2+      -0.0000    0.0000    0.0000   -0.0000    0.0000   -0.0000    0.0000   -0.0000    0.0000   -0.0000
       15 FE2    1s        -0.0000    0.0000    0.0000    0.0000   -0.0000   -0.0000    0.0000   -0.0000    0.0000   -0.0000
       16 FE2    2s        -0.0000   -0.0000   -0.0000    0.0000   -0.0002    0.0000   -0.0000   -0.0000    0.0000   -0.0000
       17 FE2    3s        -0.0000    0.0000   -0.0000    0.0002    0.0035   -0.0000    0.0000    0.0000    0.0000    0.0002
       18 FE2    4s        -0.0002    0.0000   -0.0000   -0.0011    0.9679   -0.0000    0.0000    0.0000   -0.0000    0.0419
       19 FE2    5s        -0.0007    0.0000   -0.0000    0.0014   -0.2474    0.0000   -0.0000   -0.0000    0.0000   -0.0106
       20 FE2    2px       -0.0000   -0.0000    0.0000    0.0000    0.0000   -0.0000    0.0000   -0.0000    0.0000    0.0000
       21 FE2    3px       -0.0000   -0.0000    0.0000   -0.0000   -0.0000   -0.0000    0.0000   -0.0000    0.0000    0.0000
       22 FE2    4px       -0.0000   -0.0003    0.0000   -0.0000    0.0000    0.0000   -0.0000    0.0000   -0.0000    0.0000
       23 FE2    5px        0.0000   -0.0001    0.0000    0.0000    0.0000   -0.0000   -0.0000   -0.0000    0.0000    0.0000
       24 FE2    2py       -0.0000   -0.0000   -0.0000   -0.0000   -0.0000   -0.0000   -0.0000   -0.0000   -0.0000    0.0000
       25 FE2    3py        0.0000   -0.0000   -0.0000    0.0000    0.0000    0.0000    0.0000   -0.0000   -0.0000    0.0000
       26 FE2    4py       -0.0000   -0.0000   -0.0003   -0.0000    0.0000   -0.0000   -0.0000    0.0000    0.0000    0.0000
       27 FE2    5py       -0.0000   -0.0000   -0.0001   -0.0000    0.0000    0.0000   -0.0000   -0.0000   -0.0000    0.0000
       28 FE2    2pz       -0.0000    0.0000   -0.0000    0.0000    0.0000   -0.0000    0.0000    0.0000   -0.0000   -0.0000
       29 FE2    3pz       -0.0000   -0.0000   -0.0000    0.0001   -0.0000    0.0000   -0.0000   -0.0000   -0.0000   -0.0000
       30 FE2    4pz       -0.0004    0.0000   -0.0000   -0.0002   -0.0009    0.0000   -0.0000   -0.0000    0.0000   -0.0003
       31 FE2    5pz       -0.0002    0.0000   -0.0000    0.0001   -0.0002    0.0000    0.0000   -0.0000    0.0000   -0.0000
       32 FE2    3d2-      -0.0000   -0.0000    0.0000    0.0000    0.0000    0.9919    0.0057   -0.0000    0.0000    0.0000
       33 FE2    4d2-       0.0000    0.0000    0.0000    0.0000    0.0000    0.1265    0.0007   -0.0000    0.0000    0.0000
       34 FE2    3d1-       0.0000   -0.0000   -0.0000   -0.0000    0.0000   -0.0000   -0.0000    0.0723    0.9893   -0.0000
       35 FE2    4d1-      -0.0000   -0.0000   -0.0001   -0.0000    0.0000   -0.0000   -0.0000    0.0092    0.1261   -0.0000
       36 FE2    3d0       -0.0000   -0.0000    0.0000   -0.0009   -0.0428   -0.0000    0.0000    0.0000    0.0000    0.9911
       37 FE2    4d0       -0.0001    0.0000   -0.0000   -0.0002   -0.0057   -0.0000    0.0000    0.0000    0.0000    0.1263
       38 FE2    3d1+       0.0000   -0.0000    0.0000    0.0000    0.0000    0.0000    0.0000    0.9893   -0.0723   -0.0000
       39 FE2    4d1+      -0.0000   -0.0001    0.0000    0.0000    0.0000    0.0000    0.0000    0.1261   -0.0092   -0.0000
       40 FE2    3d2+      -0.0000   -0.0000    0.0000    0.0000   -0.0000   -0.0057    0.9919   -0.0000    0.0000   -0.0000
       41 FE2    4d2+       0.0000   -0.0000   -0.0000   -0.0000   -0.0000   -0.0007    0.1265   -0.0000    0.0000   -0.0000
       42 FE2    4f3-      -0.0000   -0.0000   -0.0000   -0.0000   -0.0000   -0.0000   -0.0000   -0.0000    0.0000   -0.0000
       43 FE2    4f2-       0.0000   -0.0000    0.0000   -0.0000   -0.0000    0.0000    0.0000   -0.0000    0.0000    0.0000
       44 FE2    4f1-       0.0000    0.0000    0.0000   -0.0000    0.0000   -0.0000   -0.0000    0.0000    0.0000   -0.0000
       45 FE2    4f0       -0.0000    0.0000   -0.0000   -0.0000   -0.0000   -0.0000   -0.0000    0.0000    0.0000    0.0000
       46 FE2    4f1+       0.0000    0.0000   -0.0000   -0.0000   -0.0000    0.0000    0.0000    0.0000   -0.0000   -0.0000
       47 FE2    4f2+       0.0000   -0.0000    0.0000   -0.0000   -0.0000   -0.0000    0.0000    0.0000    0.0000    0.0000
       48 FE2    4f3+       0.0000   -0.0000   -0.0000   -0.0000    0.0000    0.0000   -0.0000   -0.0000   -0.0000    0.0000
 
          Orbital           21        22        23        24    
          Energy           -0.3924   -0.3924   -0.3920   -0.2270
          Occ. No.          0.0000    0.0000    0.0000    0.0000
 
        1 O1     1s         0.0000   -0.0000   -0.0007   -0.0021
        2 O1     2s         0.0000   -0.0000   -0.0094   -0.0256
        3 O1     3s         0.0000   -0.0000   -0.0025   -0.0024
        4 O1     2px       -0.0017   -0.0008   -0.0000   -0.0000
        5 O1     3px       -0.0007   -0.0003   -0.0000   -0.0000
        6 O1     2py        0.0008   -0.0017    0.0000    0.0000
        7 O1     3py        0.0003   -0.0007    0.0000    0.0000
        8 O1     2pz       -0.0000    0.0000    0.0155    0.0304
        9 O1     3pz       -0.0000    0.0000    0.0026    0.0016
       10 O1     3d2-       0.0000    0.0000    0.0000    0.0000
       11 O1     3d1-       0.0000   -0.0000    0.0000    0.0000
       12 O1     3d0       -0.0000    0.0000    0.0003    0.0007
       13 O1     3d1+      -0.0000   -0.0000    0.0000   -0.0000
       14 O1     3d2+      -0.0000   -0.0000    0.0000    0.0000
       15 FE2    1s        -0.0000   -0.0000    0.0000    0.0000
       16 FE2    2s        -0.0000    0.0000    0.0000    0.0002
       17 FE2    3s         0.0000    0.0000    0.0000   -0.0024
       18 FE2    4s         0.0000   -0.0000    0.0004    0.2479
       19 FE2    5s        -0.0000    0.0000   -0.0021    0.9701
       20 FE2    2px       -0.0003   -0.0001    0.0000    0.0000
       21 FE2    3px        0.0100    0.0046   -0.0000   -0.0000
       22 FE2    4px        0.9081    0.4125   -0.0000    0.0000
       23 FE2    5px        0.0656    0.0298   -0.0000    0.0000
       24 FE2    2py        0.0001   -0.0003    0.0000   -0.0000
       25 FE2    3py       -0.0046    0.0100   -0.0000    0.0000
       26 FE2    4py       -0.4125    0.9081   -0.0000   -0.0000
       27 FE2    5py       -0.0298    0.0656   -0.0000   -0.0000
       28 FE2    2pz        0.0000   -0.0000   -0.0003   -0.0000
       29 FE2    3pz       -0.0000    0.0000    0.0110    0.0001
       30 FE2    4pz       -0.0000    0.0000    0.9978    0.0034
       31 FE2    5pz       -0.0000    0.0000    0.0720   -0.0000
       32 FE2    3d2-      -0.0000   -0.0000    0.0000   -0.0000
       33 FE2    4d2-       0.0000    0.0000   -0.0000    0.0000
       34 FE2    3d1-      -0.0000    0.0000   -0.0000   -0.0000
       35 FE2    4d1-       0.0000   -0.0000    0.0000    0.0000
       36 FE2    3d0       -0.0000   -0.0000    0.0005    0.0003
       37 FE2    4d0        0.0000   -0.0000   -0.0002   -0.0005
       38 FE2    3d1+       0.0000    0.0000   -0.0000    0.0000
       39 FE2    4d1+      -0.0000   -0.0000   -0.0000    0.0000
       40 FE2    3d2+      -0.0000    0.0000    0.0000    0.0000
       41 FE2    4d2+       0.0000   -0.0000    0.0000    0.0000
       42 FE2    4f3-      -0.0000   -0.0000    0.0000    0.0000
       43 FE2    4f2-       0.0000    0.0000   -0.0000   -0.0000
       44 FE2    4f1-       0.0000   -0.0000    0.0000   -0.0000
       45 FE2    4f0        0.0000   -0.0000   -0.0000   -0.0000
       46 FE2    4f1+      -0.0000   -0.0000    0.0000   -0.0000
       47 FE2    4f2+       0.0000   -0.0000    0.0000    0.0000
       48 FE2    4f3+       0.0000    0.0000   -0.0000    0.0000
--
 
 
++    Molecular charges:
      ------------------
 
      Mulliken charges per centre and basis function type
      ---------------------------------------------------
 
                            O1                      FE2   
                     alpha        beta       alpha        beta
      1s           1.0000      1.0000      1.0000      1.0000
      2s           0.9986      0.9988      1.0000      1.0000
      2px          0.0000      0.9978      1.0000      1.0000
      2pz          0.9972      0.9998      1.0000      1.0000
      2py          0.0000      0.9978      1.0000      1.0000
      3s           0.0006      0.0009      1.0000      1.0000
      3px          0.0000      0.0022      0.9993      0.9998
      3pz          0.0027      0.0001      0.9993      0.9998
      3py          0.0000      0.0022      0.9993      0.9998
      4s           0.0000      0.0000      0.8625      0.0000
      3d2+        -0.0000      0.0000      0.9814      0.0000
      3d1+        -0.0000      0.0000      0.9814     -0.0000
      3d0          0.0009      0.0005      0.9814      0.0000
      3d1-        -0.0000      0.0000      0.9814     -0.0000
      3d2-        -0.0000      0.0000      0.9814      0.0000
      4px          0.0000      0.0000      0.0004      0.0001
      4pz          0.0000      0.0000      0.0005      0.0001
      4py          0.0000      0.0000      0.0004      0.0001
      5s           0.0000      0.0000      0.1374     -0.0000
      4d2+         0.0000      0.0000      0.0186      0.0000
      4d1+         0.0000      0.0000      0.0186     -0.0000
      4d0          0.0000      0.0000      0.0186      0.0000
      4d1-         0.0000      0.0000      0.0186     -0.0000
      4d2-         0.0000      0.0000      0.0186      0.0000
      5px          0.0000      0.0000      0.0003      0.0000
      5pz          0.0000      0.0000      0.0003      0.0000
      5py          0.0000      0.0000      0.0003      0.0000
      4f3+         0.0000      0.0000      0.0000      0.0000
      4f2+         0.0000      0.0000      0.0000      0.0000
      4f1+         0.0000      0.0000      0.0000      0.0000
      4f0          0.0000      0.0000      0.0000      0.0000
      4f1-         0.0000      0.0000      0.0000      0.0000
      4f2-         0.0000      0.0000      0.0000      0.0000
      4f3-         0.0000      0.0000      0.0000      0.0000
      Total        3.0000      5.0001     15.0000      8.9999
      Total              8.0000                 24.0000
 
      Charge           -0.0000                  2.0000
 
      Total electronic charge=   32.000000
 
      Total            charge=    2.000000
--
 
 
  Input file to MOLDEN was generated!
 
 
++    Static properties:
      ------------------
 
 
      LoProp Charges per center
 

                   O1       FE2   
      Nuclear      8.0000  26.0000
      Electronic  -8.0001 -23.9999
 
      Total       -0.0001   2.0001
--
 
 
++    Natural Bond Order analysis
      ---------------------------
      Based on LoProp computed density
      -------------------------------------------------------------------------------------
      Atom A       Atom B       Bond Order
      -------------------------------------------------------------------------------------
      NBO located     20.000 core electrons.
      NBO located      3.996 lone pair electrons.
      NBO located      1.000 non-bonded electrons on atom O1        
      NBO located      1.000 non-bonded electrons on atom O1        
      The remaining    6.005 electrons are to be considered as diffuse
--
 
 
++    Molecular orbitals:
      -------------------
 
      Title: Natural orbitals

      Molecular orbitals for symmetry species 1: a  
 
          Orbital            1         2         3         4         5         6         7         8         9        10    
          Energy         -264.6134  -33.0550  -27.6844  -27.7126  -27.7118  -20.8534   -5.5752   -4.4619   -4.4620   -4.4616
          Occ. No.          2.0000    2.0000    2.0000    2.0000    2.0000    2.0000    2.0000    1.9999    1.9999    1.9999
 
        1 O1     1s         0.0000    0.0035    0.0637    0.0000    0.0000   -0.9968   -0.0334   -0.0014    0.0000    0.0000
        2 O1     2s         0.0000   -0.0001   -0.0021   -0.0000   -0.0000    0.0335    0.0007   -0.0011   -0.0000   -0.0000
        3 O1     3s         0.0000    0.0000   -0.0000   -0.0000   -0.0000    0.0005   -0.0002    0.0001    0.0000    0.0000
        4 O1     2px       -0.0000    0.0000   -0.0000    0.0000   -0.0000   -0.0000   -0.0000    0.0000   -0.0000   -0.0000
        5 O1     3px        0.0000   -0.0000    0.0000    0.0000   -0.0000   -0.0000    0.0000   -0.0000   -0.0000   -0.0000
        6 O1     2py       -0.0000   -0.0000    0.0000   -0.0000   -0.0000    0.0000    0.0000   -0.0000    0.0000   -0.0000
        7 O1     3py       -0.0000    0.0000   -0.0000   -0.0000   -0.0000   -0.0000    0.0000   -0.0000    0.0000   -0.0000
        8 O1     2pz        0.0000   -0.0000    0.0006   -0.0000   -0.0000    0.0006    0.0025   -0.0125   -0.0000   -0.0000
        9 O1     3pz        0.0000   -0.0000    0.0000    0.0000    0.0000   -0.0002    0.0004   -0.0003   -0.0000   -0.0000
       10 O1     3d2-       0.0000   -0.0000   -0.0000   -0.0000    0.0000   -0.0000    0.0000    0.0000   -0.0000    0.0000
       11 O1     3d1-      -0.0000    0.0000    0.0000    0.0000    0.0000   -0.0000   -0.0000    0.0000   -0.0000    0.0000
       12 O1     3d0       -0.0000    0.0000    0.0000    0.0000    0.0000   -0.0002   -0.0000    0.0001    0.0000    0.0000
       13 O1     3d1+      -0.0000    0.0000    0.0000   -0.0000    0.0000    0.0000   -0.0000   -0.0000    0.0000    0.0000
       14 O1     3d2+      -0.0000    0.0000   -0.0000    0.0000    0.0000    0.0000   -0.0000    0.0000   -0.0000   -0.0000
       15 FE2    1s         1.0000   -0.0000    0.0000    0.0000    0.0000   -0.0000    0.0000    0.0000   -0.0000    0.0000
       16 FE2    2s         0.0000    0.9939    0.0010   -0.0000    0.0000   -0.0001    0.1105    0.0002    0.0000    0.0000
       17 FE2    3s        -0.0000   -0.1105    0.0009    0.0000    0.0000   -0.0336    0.9933    0.0012   -0.0000    0.0000
       18 FE2    4s         0.0000    0.0005   -0.0000   -0.0000   -0.0000    0.0001   -0.0022    0.0000    0.0000    0.0000
       19 FE2    5s        -0.0000   -0.0006    0.0000    0.0000    0.0000   -0.0002    0.0045   -0.0000   -0.0000   -0.0000
       20 FE2    2px        0.0000   -0.0000   -0.0000   -0.2757    0.9452    0.0000   -0.0000   -0.0000    0.1685    0.0477
       21 FE2    3px       -0.0000    0.0000    0.0000    0.0490   -0.1681   -0.0000    0.0000   -0.0000    0.9472    0.2680
       22 FE2    4px        0.0000   -0.0000   -0.0000   -0.0007    0.0025    0.0000   -0.0000    0.0000   -0.0145   -0.0041
       23 FE2    5px       -0.0000    0.0000    0.0000    0.0005   -0.0018   -0.0000    0.0000   -0.0000    0.0113    0.0032
       24 FE2    2py       -0.0000   -0.0000    0.0000    0.9452    0.2757    0.0000   -0.0000   -0.0000   -0.0476    0.1684
       25 FE2    3py        0.0000    0.0000   -0.0000   -0.1680   -0.0490   -0.0000    0.0000   -0.0000   -0.2680    0.9472
       26 FE2    4py       -0.0000   -0.0000    0.0000    0.0025    0.0007    0.0000   -0.0000    0.0000    0.0041   -0.0145
       27 FE2    5py        0.0000    0.0000   -0.0000   -0.0018   -0.0005   -0.0000    0.0000   -0.0000   -0.0032    0.0113
       28 FE2    2pz       -0.0000   -0.0011    0.9826   -0.0000   -0.0000    0.0625    0.0009    0.1751    0.0000    0.0000
       29 FE2    3pz       -0.0000    0.0001   -0.1747    0.0000    0.0000   -0.0124   -0.0014    0.9843    0.0000    0.0000
       30 FE2    4pz        0.0000   -0.0000    0.0026   -0.0000   -0.0000    0.0002    0.0000   -0.0151   -0.0000   -0.0000
       31 FE2    5pz        0.0000   -0.0000   -0.0019    0.0000    0.0000   -0.0001    0.0000    0.0117    0.0000    0.0000
       32 FE2    3d2-       0.0000   -0.0000   -0.0000   -0.0000    0.0000   -0.0000   -0.0000   -0.0000   -0.0000   -0.0000
       33 FE2    4d2-       0.0000   -0.0000   -0.0000   -0.0000   -0.0000    0.0000    0.0000   -0.0000    0.0000    0.0000
       34 FE2    3d1-      -0.0000   -0.0000   -0.0000   -0.0000   -0.0000   -0.0000   -0.0000   -0.0000   -0.0000    0.0000
       35 FE2    4d1-       0.0000    0.0000    0.0000    0.0000    0.0000    0.0000    0.0000    0.0000    0.0000   -0.0000
       36 FE2    3d0        0.0000   -0.0000   -0.0000    0.0000    0.0000   -0.0000   -0.0000    0.0000    0.0000    0.0000
       37 FE2    4d0        0.0000   -0.0000    0.0000    0.0000    0.0000   -0.0000    0.0000   -0.0000   -0.0000    0.0000
       38 FE2    3d1+       0.0000    0.0000    0.0000    0.0000   -0.0000   -0.0000    0.0000   -0.0000    0.0000    0.0000
       39 FE2    4d1+       0.0000   -0.0000   -0.0000   -0.0000    0.0000    0.0000   -0.0000    0.0000   -0.0000   -0.0000
       40 FE2    3d2+      -0.0000    0.0000   -0.0000   -0.0000   -0.0000   -0.0000   -0.0000    0.0000   -0.0000   -0.0000
       41 FE2    4d2+       0.0000   -0.0000    0.0000   -0.0000   -0.0000    0.0000    0.0000   -0.0000    0.0000   -0.0000
       42 FE2    4f3-      -0.0000    0.0000    0.0000   -0.0000   -0.0000    0.0000    0.0000   -0.0000    0.0000    0.0000
       43 FE2    4f2-      -0.0000   -0.0000    0.0000    0.0000   -0.0000   -0.0000   -0.0000    0.0000    0.0000   -0.0000
       44 FE2    4f1-      -0.0000    0.0000    0.0000    0.0000    0.0000    0.0000   -0.0000    0.0000    0.0000   -0.0000
       45 FE2    4f0        0.0000   -0.0000    0.0000   -0.0000    0.0000    0.0000   -0.0000   -0.0000   -0.0000   -0.0000
       46 FE2    4f1+       0.0000   -0.0000   -0.0000   -0.0000    0.0000    0.0000   -0.0000    0.0000   -0.0000   -0.0000
       47 FE2    4f2+       0.0000    0.0000    0.0000    0.0000   -0.0000    0.0000    0.0000    0.0000    0.0000   -0.0000
       48 FE2    4f3+       0.0000   -0.0000    0.0000   -0.0000    0.0000   -0.0000   -0.0000   -0.0000    0.0000    0.0000
 
          Orbital           11        12        13        14        15        16        17        18        19        20    
          Energy           -0.7627   -1.4497   -0.7701   -0.7701   -1.0844   -1.0844   -1.0844   -0.7598   -0.7701   -0.7701
          Occ. No.          1.9982    1.9974    1.0000    1.0000    1.0000    1.0000    1.0000    1.0000    1.0000    1.0000
 
        1 O1     1s        -0.0046    0.0333    0.0000    0.0000   -0.0000    0.0000   -0.0000   -0.0004   -0.0000    0.0000
        2 O1     2s        -0.1167    0.9926    0.0000    0.0000   -0.0002    0.0000   -0.0000   -0.0039   -0.0000    0.0000
        3 O1     3s         0.0090   -0.0022    0.0000    0.0000   -0.0003    0.0000   -0.0000   -0.0039   -0.0000    0.0000
        4 O1     2px        0.0000   -0.0000    0.7045   -0.0517   -0.0000   -0.0000   -0.0000    0.0000    0.7044    0.0517
        5 O1     3px       -0.0000    0.0000   -0.0330    0.0024   -0.0000    0.0000    0.0000    0.0000   -0.0334   -0.0025
        6 O1     2py       -0.0000   -0.0000    0.0517    0.7045    0.0000   -0.0000   -0.0000    0.0000    0.0517   -0.7044
        7 O1     3py       -0.0000   -0.0000   -0.0024   -0.0330    0.0000    0.0000    0.0000    0.0000   -0.0025    0.0334
        8 O1     2pz       -0.9928   -0.1167   -0.0000   -0.0000   -0.0007    0.0000   -0.0000   -0.0003   -0.0000    0.0000
        9 O1     3pz       -0.0198   -0.0058   -0.0000   -0.0000    0.0007   -0.0000    0.0000    0.0061    0.0000   -0.0000
       10 O1     3d2-      -0.0000   -0.0000   -0.0000    0.0000    0.0000    0.0000    0.0000    0.0000   -0.0000   -0.0000
       11 O1     3d1-       0.0000    0.0000   -0.0002   -0.0028   -0.0000    0.0000    0.0000   -0.0000   -0.0002    0.0028
       12 O1     3d0        0.0043    0.0046    0.0000    0.0000   -0.0001    0.0000   -0.0000   -0.0002   -0.0000    0.0000
       13 O1     3d1+      -0.0000   -0.0000   -0.0028    0.0002    0.0000    0.0000    0.0000   -0.0000   -0.0028   -0.0002
       14 O1     3d2+       0.0000    0.0000    0.0000    0.0000   -0.0000    0.0000   -0.0000    0.0000    0.0000   -0.0000
       15 FE2    1s        -0.0000   -0.0000   -0.0000   -0.0000    0.0000   -0.0000    0.0000    0.0000    0.0000   -0.0000
       16 FE2    2s         0.0002    0.0000   -0.0000   -0.0000    0.0000   -0.0000    0.0000    0.0003    0.0000   -0.0000
       17 FE2    3s         0.0020    0.0006    0.0000    0.0000   -0.0000    0.0000   -0.0000   -0.0038   -0.0000    0.0000
       18 FE2    4s         0.0007   -0.0001    0.0000    0.0000    0.0001    0.0000   -0.0000   -0.9285   -0.0000    0.0000
       19 FE2    5s        -0.0008   -0.0006   -0.0000   -0.0000    0.0001   -0.0000    0.0000    0.3712    0.0000   -0.0000
       20 FE2    2px        0.0000    0.0000   -0.0000    0.0000    0.0000   -0.0000    0.0000   -0.0000    0.0000    0.0000
       21 FE2    3px       -0.0000   -0.0000   -0.0000    0.0000    0.0000   -0.0000    0.0000   -0.0000    0.0000    0.0000
       22 FE2    4px        0.0000    0.0000   -0.0002    0.0000    0.0000   -0.0000    0.0000   -0.0000   -0.0001   -0.0000
       23 FE2    5px       -0.0000    0.0000   -0.0001    0.0000    0.0000   -0.0000    0.0000   -0.0000   -0.0001   -0.0000
       24 FE2    2py       -0.0000   -0.0000   -0.0000   -0.0000   -0.0000    0.0000   -0.0000   -0.0000    0.0000   -0.0000
       25 FE2    3py        0.0000   -0.0000   -0.0000   -0.0000   -0.0000    0.0000   -0.0000   -0.0000    0.0000   -0.0000
       26 FE2    4py        0.0000   -0.0000   -0.0000   -0.0002   -0.0000    0.0000   -0.0000   -0.0000   -0.0000    0.0001
       27 FE2    5py        0.0000   -0.0000   -0.0000   -0.0001   -0.0000    0.0000   -0.0000   -0.0000   -0.0000    0.0001
       28 FE2    2pz       -0.0016   -0.0001    0.0000    0.0000    0.0000    0.0000   -0.0000   -0.0000   -0.0000    0.0000
       29 FE2    3pz       -0.0126   -0.0003   -0.0000   -0.0000    0.0000   -0.0000    0.0000    0.0001    0.0000   -0.0000
       30 FE2    4pz        0.0034    0.0001   -0.0000   -0.0000    0.0002   -0.0000    0.0000    0.0033    0.0000   -0.0000
       31 FE2    5pz       -0.0001   -0.0001   -0.0000   -0.0000    0.0000   -0.0000    0.0000    0.0003    0.0000   -0.0000
       32 FE2    3d2-      -0.0000   -0.0000   -0.0000    0.0000    0.0000    0.9907    0.0010    0.0000    0.0000    0.0000
       33 FE2    4d2-      -0.0000    0.0000    0.0000   -0.0000   -0.0000   -0.1364   -0.0001   -0.0000   -0.0000   -0.0000
       34 FE2    3d1-       0.0000    0.0000    0.0513    0.6986    0.0000   -0.0000    0.0000    0.0000   -0.0513    0.6986
       35 FE2    4d1-       0.0000   -0.0000   -0.0071   -0.0962   -0.0000    0.0000   -0.0000   -0.0000    0.0071   -0.0961
       36 FE2    3d0        0.0008    0.0001   -0.0000    0.0000   -0.9906    0.0000    0.0000    0.0001    0.0000    0.0000
       37 FE2    4d0        0.0004   -0.0000    0.0000   -0.0000    0.1364   -0.0000   -0.0000    0.0004   -0.0000   -0.0000
       38 FE2    3d1+      -0.0000   -0.0000    0.6986   -0.0513   -0.0000    0.0000   -0.0000    0.0000   -0.6986   -0.0513
       39 FE2    4d1+      -0.0000   -0.0000   -0.0962    0.0071    0.0000   -0.0000    0.0000   -0.0000    0.0961    0.0071
       40 FE2    3d2+      -0.0000   -0.0000   -0.0000    0.0000   -0.0000    0.0010   -0.9907    0.0000    0.0000    0.0000
       41 FE2    4d2+       0.0000    0.0000    0.0000   -0.0000    0.0000   -0.0001    0.1364   -0.0000   -0.0000   -0.0000
       42 FE2    4f3-       0.0000   -0.0000   -0.0000    0.0000    0.0000   -0.0000    0.0000    0.0000    0.0000    0.0000
       43 FE2    4f2-       0.0000    0.0000   -0.0000    0.0000    0.0000    0.0000    0.0000    0.0000    0.0000    0.0000
       44 FE2    4f1-       0.0000   -0.0000    0.0000    0.0000    0.0000   -0.0000    0.0000    0.0000   -0.0000    0.0000
       45 FE2    4f0        0.0000    0.0000   -0.0000   -0.0000   -0.0000   -0.0000    0.0000    0.0000    0.0000   -0.0000
       46 FE2    4f1+       0.0000    0.0000    0.0000   -0.0000   -0.0000    0.0000   -0.0000    0.0000   -0.0000   -0.0000
       47 FE2    4f2+       0.0000    0.0000   -0.0000    0.0000   -0.0000    0.0000   -0.0000    0.0000    0.0000    0.0000
       48 FE2    4f3+       0.0000    0.0000   -0.0000   -0.0000   -0.0000    0.0000    0.0000   -0.0000   -0.0000    0.0000
 
          Orbital           21        22        23        24        25        26        27        28        29        30    
          Energy            1.3156    0.3853    0.9456    0.9456    0.9563   -0.2244    1.0361   -0.0423   -0.0423    0.2904
          Occ. No.          0.0026    0.0018    0.0001    0.0001    0.0001    0.0000    0.0000    0.0000    0.0000    0.0000
 
        1 O1     1s         0.0002    0.0001    0.0000    0.0000   -0.0008    0.0022   -0.0012    0.0000    0.0000    0.0008
        2 O1     2s        -0.0013    0.0045    0.0000    0.0000   -0.0100    0.0273   -0.0125    0.0000    0.0000    0.0117
        3 O1     3s         0.7025    0.0775    0.0000    0.0000   -0.0183    0.0672   -0.6385    0.0000    0.0000   -0.3053
        4 O1     2px       -0.0000    0.0000   -0.0019   -0.0009   -0.0000    0.0000    0.0000   -0.0038   -0.0019    0.0000
        5 O1     3px       -0.0000   -0.0000   -0.0072   -0.0032   -0.0000    0.0000    0.0000   -0.0256   -0.0130    0.0000
        6 O1     2py        0.0000   -0.0000    0.0009   -0.0019   -0.0000   -0.0000    0.0000    0.0019   -0.0038    0.0000
        7 O1     3py       -0.0000    0.0000    0.0032   -0.0072   -0.0000   -0.0000    0.0000    0.0130   -0.0256   -0.0000
        8 O1     2pz        0.0126   -0.0215   -0.0000   -0.0000    0.0082   -0.0319    0.0097   -0.0000    0.0000   -0.0217
        9 O1     3pz       -0.1215    0.9765   -0.0000   -0.0000   -0.0224   -0.1455    0.0789   -0.0000    0.0000   -0.1813
       10 O1     3d2-      -0.0000    0.0000    0.0000    0.0000   -0.0000    0.0000    0.0000   -0.0000   -0.0000    0.0000
       11 O1     3d1-       0.0000    0.0000   -0.0002    0.0006   -0.0000    0.0000    0.0000   -0.0016    0.0032    0.0000
       12 O1     3d0        0.6997    0.1027   -0.0000   -0.0000   -0.0056    0.0087    0.6153   -0.0000   -0.0000    0.3461
       13 O1     3d1+      -0.0000   -0.0000    0.0006    0.0002    0.0000    0.0000   -0.0000    0.0032    0.0016   -0.0000
       14 O1     3d2+       0.0000    0.0000    0.0000    0.0000   -0.0000    0.0000   -0.0000   -0.0000   -0.0000   -0.0000
       15 FE2    1s        -0.0000    0.0001   -0.0000    0.0000   -0.0000   -0.0000    0.0000   -0.0000    0.0000   -0.0000
       16 FE2    2s        -0.0001    0.0004   -0.0000   -0.0000   -0.0000   -0.0000    0.0000   -0.0000    0.0000   -0.0001
       17 FE2    3s        -0.0004    0.0025   -0.0000   -0.0000   -0.0001    0.0030    0.0002   -0.0000    0.0000   -0.0004
       18 FE2    4s         0.0016    0.0122   -0.0000    0.0000    0.0001   -0.3768    0.0019    0.0000   -0.0000   -0.0107
       19 FE2    5s         0.0065   -0.0195   -0.0000   -0.0000    0.0063   -0.9385    0.0011    0.0000   -0.0000   -0.0109
       20 FE2    2px        0.0000   -0.0000   -0.0002   -0.0001   -0.0000    0.0000   -0.0000   -0.0000   -0.0000    0.0000
       21 FE2    3px       -0.0000   -0.0000   -0.0165   -0.0074   -0.0000   -0.0000    0.0000    0.0062    0.0032   -0.0000
       22 FE2    4px        0.0000   -0.0000   -0.4708   -0.2118   -0.0000   -0.0000    0.0000    0.7639    0.3871   -0.0000
       23 FE2    5px        0.0000    0.0000    0.7809    0.3513    0.0000    0.0000    0.0000    0.4609    0.2336   -0.0000
       24 FE2    2py       -0.0000   -0.0000    0.0001   -0.0002    0.0000    0.0000   -0.0000    0.0000   -0.0000   -0.0000
       25 FE2    3py        0.0000   -0.0000    0.0074   -0.0165    0.0000   -0.0000    0.0000   -0.0032    0.0062    0.0000
       26 FE2    4py       -0.0000    0.0000    0.2118   -0.4708    0.0000   -0.0000    0.0000   -0.3871    0.7639    0.0000
       27 FE2    5py       -0.0000   -0.0000   -0.3513    0.7809   -0.0000   -0.0000    0.0000   -0.2336    0.4609    0.0000
       28 FE2    2pz       -0.0000    0.0001    0.0000    0.0000   -0.0002   -0.0000   -0.0000    0.0000    0.0000    0.0000
       29 FE2    3pz       -0.0001    0.0002    0.0000    0.0000   -0.0180   -0.0003    0.0035   -0.0000    0.0000   -0.0065
       30 FE2    4pz        0.0125   -0.1025    0.0000    0.0000   -0.5092   -0.0027    0.4133   -0.0000    0.0000   -0.7522
       31 FE2    5pz        0.0021   -0.0019   -0.0000   -0.0000    0.8597   -0.0019    0.2515   -0.0000    0.0000   -0.4536
       32 FE2    3d2-       0.0000   -0.0000   -0.0000    0.0000   -0.0000    0.0000   -0.0000    0.0000    0.0000    0.0000
       33 FE2    4d2-       0.0000   -0.0000   -0.0000    0.0000   -0.0000    0.0000   -0.0000    0.0000    0.0000    0.0000
       34 FE2    3d1-      -0.0000   -0.0000    0.0000   -0.0001    0.0000   -0.0000   -0.0000   -0.0003    0.0005   -0.0000
       35 FE2    4d1-      -0.0000    0.0000    0.0002   -0.0004    0.0000   -0.0000   -0.0000   -0.0016    0.0033   -0.0000
       36 FE2    3d0        0.0002    0.0007    0.0000   -0.0000    0.0000   -0.0011    0.0066   -0.0000   -0.0000    0.0015
       37 FE2    4d0        0.0023   -0.0074    0.0000   -0.0000    0.0012   -0.0062    0.0462   -0.0000   -0.0000    0.0135
       38 FE2    3d1+       0.0000   -0.0000   -0.0001   -0.0000    0.0000   -0.0000    0.0000    0.0005    0.0003    0.0000
       39 FE2    4d1+       0.0000   -0.0000   -0.0004   -0.0002    0.0000   -0.0000    0.0000    0.0033    0.0016    0.0000
       40 FE2    3d2+       0.0000   -0.0000   -0.0000    0.0000   -0.0000    0.0000    0.0000    0.0000   -0.0000    0.0000
       41 FE2    4d2+       0.0000   -0.0000   -0.0000    0.0000   -0.0000    0.0000    0.0000    0.0000   -0.0000    0.0000
       42 FE2    4f3-      -0.0000    0.0000    0.0000    0.0000   -0.0000   -0.0000   -0.0000   -0.0000    0.0000   -0.0000
       43 FE2    4f2-      -0.0000    0.0000    0.0000    0.0000   -0.0000   -0.0000    0.0000   -0.0000   -0.0000   -0.0000
       44 FE2    4f1-      -0.0000    0.0000    0.0000   -0.0000   -0.0000    0.0000   -0.0000   -0.0001    0.0003    0.0000
       45 FE2    4f0        0.0001   -0.0002   -0.0000    0.0000    0.0000   -0.0002    0.0016    0.0000   -0.0000    0.0001
       46 FE2    4f1+       0.0000    0.0000   -0.0000   -0.0000   -0.0000    0.0000   -0.0000    0.0003    0.0001    0.0000
       47 FE2    4f2+       0.0000    0.0000   -0.0000   -0.0000    0.0000    0.0000    0.0000   -0.0000   -0.0000    0.0000
       48 FE2    4f3+       0.0000   -0.0000   -0.0000   -0.0000    0.0000   -0.0000    0.0000    0.0000   -0.0000   -0.0000
 
          Orbital           31        32        33        34        35        36        37        38        39        40    
          Energy            0.2748    0.3938    0.2684    0.3937    0.2686    0.2698    0.2693    1.9294    1.9227    1.9227
          Occ. No.          0.0000    0.0000    0.0000    0.0000    0.0000    0.0000    0.0000    0.0000    0.0000    0.0000
 
        1 O1     1s         0.0002    0.0000   -0.0000    0.0000   -0.0000   -0.0000    0.0000    0.0000    0.0000    0.0000
        2 O1     2s         0.0041    0.0000   -0.0000    0.0000   -0.0000   -0.0000    0.0000   -0.0000    0.0000    0.0000
        3 O1     3s        -0.0187   -0.0000    0.0000   -0.0000    0.0000    0.0000   -0.0000    0.0000   -0.0000   -0.0000
        4 O1     2px       -0.0000    0.0470   -0.0001   -0.0001   -0.0000   -0.0030   -0.0016   -0.0032    0.0000   -0.0000
        5 O1     3px       -0.0000    0.9981   -0.0011   -0.0017   -0.0003   -0.0350   -0.0155   -0.0054    0.0000   -0.0000
        6 O1     2py       -0.0000    0.0000   -0.0001    0.0469   -0.0016   -0.0024    0.0025    0.0032    0.0000   -0.0000
        7 O1     3py       -0.0001    0.0010   -0.0019    0.9974   -0.0335   -0.0326    0.0237    0.0100    0.0001   -0.0003
        8 O1     2pz       -0.0107   -0.0000    0.0000   -0.0000    0.0000    0.0000   -0.0000    0.0000   -0.0000   -0.0000
        9 O1     3pz       -0.0550   -0.0000    0.0000   -0.0000    0.0000    0.0000   -0.0000    0.0000   -0.0000   -0.0000
       10 O1     3d2-       0.0000   -0.0000   -0.0001   -0.0003    0.0000    0.0000   -0.0000   -0.0000    0.7978   -0.6030
       11 O1     3d1-       0.0000    0.0014    0.0003   -0.0073    0.0049    0.0036   -0.0025    0.6775   -0.0000    0.0000
       12 O1     3d0        0.0388    0.0000   -0.0000    0.0000   -0.0000   -0.0000    0.0000   -0.0000    0.0000    0.0000
       13 O1     3d1+       0.0000   -0.0061   -0.0008    0.0067   -0.0009    0.0026    0.0056   -0.7348   -0.0000    0.0000
       14 O1     3d2+      -0.0000    0.0000    0.0000    0.0001    0.0000   -0.0000    0.0000    0.0000    0.6030    0.7978
       15 FE2    1s        -0.0000   -0.0000    0.0000   -0.0000    0.0000    0.0000   -0.0000    0.0000   -0.0000   -0.0000
       16 FE2    2s        -0.0000   -0.0000    0.0000   -0.0000    0.0000    0.0000   -0.0000    0.0000   -0.0000   -0.0000
       17 FE2    3s        -0.0001   -0.0000   -0.0000   -0.0000    0.0000    0.0000   -0.0000    0.0000   -0.0000   -0.0000
       18 FE2    4s        -0.0016   -0.0000   -0.0000   -0.0000    0.0000    0.0000   -0.0000    0.0000   -0.0000   -0.0000
       19 FE2    5s        -0.0009   -0.0000   -0.0000   -0.0000    0.0000    0.0000   -0.0000    0.0000    0.0000    0.0000
       20 FE2    2px        0.0000   -0.0000    0.0000    0.0000    0.0000    0.0000    0.0000    0.0000   -0.0000    0.0000
       21 FE2    3px        0.0000   -0.0002    0.0000   -0.0000   -0.0000   -0.0000   -0.0000    0.0000   -0.0000    0.0000
       22 FE2    4px       -0.0000    0.0051   -0.0000   -0.0001   -0.0000   -0.0027   -0.0017    0.0011    0.0000   -0.0000
       23 FE2    5px       -0.0000    0.0019   -0.0000   -0.0000   -0.0000   -0.0011   -0.0007    0.0003    0.0000   -0.0000
       24 FE2    2py        0.0000   -0.0000    0.0000   -0.0000    0.0000    0.0000   -0.0000   -0.0000   -0.0000    0.0000
       25 FE2    3py        0.0000   -0.0000    0.0000   -0.0002    0.0000   -0.0000    0.0000   -0.0000   -0.0000    0.0000
       26 FE2    4py       -0.0000   -0.0000   -0.0000    0.0051   -0.0002   -0.0018    0.0027   -0.0010    0.0000   -0.0000
       27 FE2    5py       -0.0000   -0.0000   -0.0000    0.0019   -0.0001   -0.0007    0.0011   -0.0003    0.0000   -0.0000
       28 FE2    2pz       -0.0000   -0.0000    0.0000   -0.0000    0.0000    0.0000   -0.0000    0.0000   -0.0000   -0.0000
       29 FE2    3pz       -0.0001   -0.0000    0.0000   -0.0000    0.0000    0.0000   -0.0000    0.0000   -0.0000   -0.0000
       30 FE2    4pz        0.0049    0.0000    0.0000    0.0000   -0.0000   -0.0000    0.0000   -0.0000    0.0000    0.0000
       31 FE2    5pz        0.0020    0.0000    0.0000    0.0000   -0.0000   -0.0000    0.0000   -0.0000    0.0000    0.0000
       32 FE2    3d2-      -0.0000   -0.0001   -0.1361    0.0000    0.0082    0.0001   -0.0000    0.0001   -0.0000    0.0000
       33 FE2    4d2-      -0.0000   -0.0011   -0.9889    0.0002    0.0595    0.0009   -0.0002    0.0006   -0.0002    0.0001
       34 FE2    3d1-       0.0000    0.0008    0.0001    0.0028   -0.0003    0.0741   -0.1145   -0.0006   -0.0000    0.0000
       35 FE2    4d1-       0.0000    0.0060    0.0005    0.0225   -0.0024    0.5380   -0.8316   -0.0039   -0.0000    0.0000
       36 FE2    3d0       -0.1365   -0.0000    0.0000   -0.0000    0.0000    0.0000   -0.0000   -0.0000   -0.0000   -0.0000
       37 FE2    4d0       -0.9908   -0.0000    0.0000   -0.0001    0.0000    0.0000   -0.0000   -0.0000   -0.0000   -0.0000
       38 FE2    3d1+      -0.0000    0.0028    0.0001    0.0020    0.0005    0.1145    0.0741    0.0003   -0.0000    0.0000
       39 FE2    4d1+      -0.0000    0.0228    0.0009    0.0145    0.0033    0.8313    0.5384    0.0016   -0.0000    0.0000
       40 FE2    3d2+       0.0000    0.0000    0.0082    0.0046    0.1360   -0.0003   -0.0005   -0.0005   -0.0000   -0.0000
       41 FE2    4d2+       0.0000    0.0003    0.0595    0.0334    0.9883   -0.0024   -0.0035   -0.0037   -0.0001   -0.0002
       42 FE2    4f3-      -0.0000    0.0000   -0.0000    0.0001   -0.0000   -0.0000    0.0000    0.0000   -0.0000    0.0000
       43 FE2    4f2-       0.0000   -0.0000    0.0000   -0.0000   -0.0000    0.0000   -0.0000   -0.0000    0.0000   -0.0000
       44 FE2    4f1-       0.0000    0.0001    0.0000   -0.0005    0.0000   -0.0000   -0.0012    0.0271    0.0000   -0.0000
       45 FE2    4f0       -0.0008   -0.0000   -0.0003   -0.0001   -0.0001    0.0000   -0.0000    0.0013    0.0000    0.0000
       46 FE2    4f1+       0.0000   -0.0004   -0.0000    0.0002   -0.0001    0.0007    0.0021   -0.0107    0.0000   -0.0000
       47 FE2    4f2+       0.0000   -0.0000   -0.0000   -0.0000   -0.0000    0.0000   -0.0000   -0.0000    0.0000    0.0000
       48 FE2    4f3+       0.0000   -0.0000    0.0000   -0.0001    0.0000    0.0000   -0.0000   -0.0000    0.0000   -0.0000
 
          Orbital           41        42        43        44        45        46    
          Energy            3.0879    3.1055    3.1008    3.1055    3.1055    3.1055
          Occ. No.          0.0000    0.0000    0.0000    0.0000    0.0000    0.0000
 
        1 O1     1s        -0.0000    0.0000   -0.0000    0.0000   -0.0000    0.0000
        2 O1     2s        -0.0000    0.0000   -0.0000    0.0000   -0.0000    0.0000
        3 O1     3s         0.0000    0.0000    0.0000   -0.0000    0.0000   -0.0000
        4 O1     2px        0.0003    0.0000    0.0000   -0.0000   -0.0000   -0.0000
        5 O1     3px        0.0000    0.0000   -0.0002   -0.0000   -0.0000   -0.0000
        6 O1     2py        0.0003    0.0000    0.0003    0.0000   -0.0000   -0.0000
        7 O1     3py       -0.0004    0.0002    0.0004    0.0000   -0.0000   -0.0000
        8 O1     2pz        0.0000   -0.0000    0.0000   -0.0000    0.0000   -0.0000
        9 O1     3pz        0.0000   -0.0000    0.0000   -0.0000    0.0000   -0.0000
       10 O1     3d2-       0.0000   -0.0000    0.0000   -0.0000   -0.0000    0.0000
       11 O1     3d1-       0.0822   -0.0000    0.0603   -0.0000    0.0000    0.0000
       12 O1     3d0       -0.0000   -0.0000   -0.0000    0.0000   -0.0000    0.0000
       13 O1     3d1+       0.0908   -0.0000    0.0189    0.0000    0.0000    0.0000
       14 O1     3d2+      -0.0000    0.0000   -0.0000    0.0000    0.0000    0.0000
       15 FE2    1s         0.0000   -0.0000    0.0000   -0.0000    0.0000   -0.0000
       16 FE2    2s         0.0000   -0.0000    0.0000   -0.0000    0.0000   -0.0000
       17 FE2    3s         0.0000   -0.0000    0.0000   -0.0000    0.0000   -0.0000
       18 FE2    4s         0.0000   -0.0000    0.0000   -0.0000    0.0000   -0.0000
       19 FE2    5s         0.0000    0.0000   -0.0000    0.0000   -0.0000    0.0000
       20 FE2    2px       -0.0000   -0.0000    0.0000    0.0000    0.0000    0.0000
       21 FE2    3px       -0.0000   -0.0000   -0.0000    0.0000    0.0000    0.0000
       22 FE2    4px       -0.0003    0.0000   -0.0002    0.0000   -0.0000   -0.0000
       23 FE2    5px       -0.0001    0.0000   -0.0001    0.0000   -0.0000   -0.0000
       24 FE2    2py        0.0000   -0.0000   -0.0000   -0.0000    0.0000    0.0000
       25 FE2    3py       -0.0000   -0.0000   -0.0000    0.0000    0.0000    0.0000
       26 FE2    4py       -0.0003    0.0000    0.0001   -0.0000   -0.0000   -0.0000
       27 FE2    5py       -0.0001    0.0000    0.0000   -0.0000   -0.0000   -0.0000
       28 FE2    2pz        0.0000   -0.0000    0.0000   -0.0000    0.0000   -0.0000
       29 FE2    3pz        0.0000   -0.0000    0.0000   -0.0000    0.0000   -0.0000
       30 FE2    4pz       -0.0000   -0.0000   -0.0000    0.0000   -0.0000    0.0000
       31 FE2    5pz       -0.0000   -0.0000   -0.0000    0.0000   -0.0000    0.0000
       32 FE2    3d2-      -0.0000   -0.0000   -0.0000   -0.0000   -0.0000    0.0000
       33 FE2    4d2-      -0.0001   -0.0000   -0.0000   -0.0000    0.0000   -0.0000
       34 FE2    3d1-       0.0000   -0.0000    0.0002    0.0000    0.0000    0.0000
       35 FE2    4d1-       0.0004   -0.0000    0.0015   -0.0000    0.0000    0.0000
       36 FE2    3d0        0.0000   -0.0000    0.0000   -0.0000    0.0000   -0.0000
       37 FE2    4d0        0.0000   -0.0000    0.0000   -0.0000    0.0000   -0.0000
       38 FE2    3d1+      -0.0002   -0.0000   -0.0003   -0.0000    0.0000    0.0000
       39 FE2    4d1+      -0.0012   -0.0000   -0.0018    0.0000    0.0000    0.0000
       40 FE2    3d2+      -0.0000   -0.0000   -0.0000    0.0000    0.0000    0.0000
       41 FE2    4d2+      -0.0003   -0.0000   -0.0002    0.0000   -0.0000   -0.0000
       42 FE2    4f3-      -0.0000   -0.6935   -0.0000   -0.7204   -0.0000   -0.0000
       43 FE2    4f2-       0.0000   -0.0000    0.0000    0.0000    0.0604   -0.9982
       44 FE2    4f1-       0.6879    0.0000   -0.7240   -0.0000   -0.0000   -0.0000
       45 FE2    4f0        0.0000    0.0000   -0.0000   -0.0000    0.0000    0.0000
       46 FE2    4f1+       0.7154    0.0000    0.6869    0.0000   -0.0000   -0.0000
       47 FE2    4f2+       0.0000   -0.0000    0.0000   -0.0000   -0.9982   -0.0604
       48 FE2    4f3+       0.0000    0.7204    0.0000   -0.6935    0.0000    0.0000
--
 
 
++    Molecular properties:
      ---------------------
 
      Charge (e):
                      =    2.0000
      Dipole Moment (Debye):
      Origin of the operator (Ang)=    0.0000    0.0000    0.0000
                   X=  1.8019E-12               Y= -6.9561E-12               Z= -1.9170E+01           Total=  1.9170E+01
      Center of Charge (Ang)
                     X=    0.00000000               Y=   -0.00000000               Z=   -1.99556951
      Quadrupole Moment (Debye*Ang):
      Origin of the operator (Ang)=    0.0000    0.0000   -0.7601
                  XX= -1.4215E+01              XY=  1.5011E-14              XZ=  9.9271E-12              YY= -1.4215E+01
                  YZ= -2.9459E-10              ZZ=  2.5824E-01
      In traceless form (Debye*Ang)
                  XX= -7.2369E+00              XY=  2.2517E-14              XZ=  1.4891E-11              YY= -7.2369E+00
                  YZ= -4.4189E-10              ZZ=  1.4474E+01
--
 
 
  Input file to MOLDEN was generated!
 
 ###############################################################################
 ###############################################################################
 ###                                                                         ###
 ###                                                                         ###
 ###    RunFile label nBas                                                   ###
 ###    was used       86 times                                              ###
 ###                                                                         ###
 ###                                                                         ###
 ###############################################################################
 ###############################################################################
--- Stop Module: scf at Sun Dec 22 22:12:48 2024 /rc=_RC_ALL_IS_WELL_ ---
*** files: 5.62.LprOrb 5.62.LoProp.molden 5.62.scf.molden 5.62.scf.h5 5.62.UhfOrb 5.62.UnaOrb xmldump
    saved to directory /home/grierjones/DDCASPT2/iron_oxo_DDCASPT2/cluster/5.62

>>> COPY /tmp/5.62/5.62.scf.h5 /home/grierjones/DDCASPT2/iron_oxo_DDCASPT2/cluster/5.62/

*** symbolic link created: INPORB -> 5.62.UnaOrb
--- Start Module: rasscf at Sun Dec 22 22:12:48 2024 ---
 
()()()()()()()()()()()()()()()()()()()()()()()()()()()()()()()()()()()()()()()()()()()()()()()()()()

                                              &RASSCF

                                   only a single process is used
                       available to each process: 2.0 GB of memory, 1 thread?
()()()()()()()()()()()()()()()()()()()()()()()()()()()()()()()()()()()()()()()()()()()()()()()()()()
 
 ###############################################################################
 ###############################################################################
 ###                                                                         ###
 ###                                                                         ###
 ###    LUMORB input error.                                                  ###
 ###                                                                         ###
 ###                                                                         ###
 ###############################################################################
 ###############################################################################
  Keyword LUMORB used with file name StartOrbFile=
 /home/grierjones/DDCASPT2/iron_oxo_DDCASPT2/cluster/5.61/5.61.RasOrb           
                                                  
  but that file cannot be used. Perhaps it does
  not exist?
 
 *************** WARNING ****************
 ###############################################################################
 ###############################################################################
 ###                                                                         ###
 ###                                                                         ###
 ###    Too many macro-iterations.                                           ###
 ###                                                                         ###
 ###                                                                         ###
 ###############################################################################
 ###############################################################################
 Too many macro-iterations requested.
 Reset to maximum, new MAXIT=     200
 ****************************************
 
 *************** WARNING ****************
 ###############################################################################
 ###############################################################################
 ###                                                                         ###
 ###                                                                         ###
 ###    Too many SX-iterations.                                              ###
 ###                                                                         ###
 ###                                                                         ###
 ###############################################################################
 ###############################################################################
 Too many SX-iterations requested.
 Reset to maximum, new ITMAX=     100
 ****************************************
 
      Header of the ONEINT file:
      --------------------------
      
      Integrals generated by seward 4.2.0  , Sun Dec 22 22:12:47 2024
 
 
      OrdInt status: non-squared
 
 
      Cartesian coordinates in Angstrom:
      -----------------------------------------------------
      No.  Label        X            Y            Z        
      -----------------------------------------------------
       1   O1         0.00000000   0.00000000   3.60962000
       2   FE2        0.00000000   0.00000000  -2.00962000
      -----------------------------------------------------
      Nuclear repulsion energy =   19.58785527
 
++    Wave function specifications:
      -----------------------------
 
      Number of closed shell electrons          22
      Number of electrons in active shells      10
      Max number of holes in RAS1 space          0
      Max nr of electrons in RAS3 space          0
      Number of inactive orbitals               11
      Number of active orbitals                 14
      Number of secondary orbitals              23
      Spin quantum number                      2.0
      State symmetry                             1
--
 
++    Orbital specifications:
      -----------------------
 
      Symmetry species                           1
                                                 a
      Frozen orbitals                            0
      Inactive orbitals                         11
      Active orbitals                           14
      RAS1 orbitals                              0
      RAS2 orbitals                             14
      RAS3 orbitals                              0
      Secondary orbitals                        23
      Deleted orbitals                           0
      Number of basis functions                 48
--
 
++    CI expansion specifications:
      ----------------------------
 
      Number of CSFs                        975975
      Number of determinants               1249248
      Number of root(s) required                 1
      Root chosen for geometry opt.              1
      CI root used                               1
         
      highest root included in the CI            1
      max. size of the explicit Hamiltonian    200
--
 
++    Optimization specifications:
      ----------------------------
 
      RASSCF algorithm: Conventional
      Maximum number of macro iterations       200
      Maximum number of SX iterations          100
      Threshold for RASSCF energy            0.100E-07
      Threshold for max MO rotation          0.100E+00
      Threshold for max BLB element          0.100E-03
      Level shift parameter                  0.500E+00
      Make Quasi-Newton update
--
 
 ###############################################################################
 ###############################################################################
 ###                                                                         ###
 ###                                                                         ###
 ###    Location: rdVec_                                                     ###
 ###    File: /home/grierjones/DDCASPT2/iron_oxo_DDCASPT2/cluster/5.61/5.61.RasOrb\n\n\n
 ###    ile: /home/grierjones/DDCASPT2/iron_oxo_DDCASPT2/cluster/5.61/5.61.RasOrb\n\n\n
 ###    le: /home/grierjones/DDCASPT2/iron_oxo_DDCASPT2/cluster/5.61/5.61.RasOrb\n\n\n
 ###    e: /home/grierjones/DDCASPT2/iron_oxo_DDCASPT2/cluster/5.61/5.61.RasOrb\n\n\n
 ###    : /home/grierjones/DDCASPT2/iron_oxo_DDCASPT2/cluster/5.61/5.61.RasOrb\n\n\n
 ###     /home/grierjones/DDCASPT2/iron_oxo_DDCASPT2/cluster/5.61/5.61.RasOrb\n\n\n
 ###    /home/grierjones/DDCASPT2/iron_oxo_DDCASPT2/cluster/5.61/5.61.RasOrb\n\n\n
 ###    home/grierjones/DDCASPT2/iron_oxo_DDCASPT2/cluster/5.61/5.61.RasOrb\n\n\n
 ###    ome/grierjones/DDCASPT2/iron_oxo_DDCASPT2/cluster/5.61/5.61.RasOrb\n\n\n
 ###    me/grierjones/DDCASPT2/iron_oxo_DDCASPT2/cluster/5.61/5.61.RasOrb\n\n\n
 ###    e/grierjones/DDCASPT2/iron_oxo_DDCASPT2/cluster/5.61/5.61.RasOrb\n\n\n
 ###    /grierjones/DDCASPT2/iron_oxo_DDCASPT2/cluster/5.61/5.61.RasOrb\n\n\n
 ###    grierjones/DDCASPT2/iron_oxo_DDCASPT2/cluster/5.61/5.61.RasOrb\n\n\n
 ###    rierjones/DDCASPT2/iron_oxo_DDCASPT2/cluster/5.61/5.61.RasOrb\n\n\n  ###
 ###    ierjones/DDCASPT2/iron_oxo_DDCASPT2/cluster/5.61/5.61.RasOrb\n\n\n   ###
 ###    erjones/DDCASPT2/iron_oxo_DDCASPT2/cluster/5.61/5.61.RasOrb          ###
 ###                                                                         ###
 ###                                                                         ###
 ###    Error during reading INPORB                                          ###
 ###     not defined yet                                                     ###
 ###                                                                         ###
 ###                                                                         ###
 ###############################################################################
 ###############################################################################
[ process      0]: xquit (rc =    128): _INTERNAL_ERROR_
abort: 
--- Stop Module: rasscf at Sun Dec 22 22:12:48 2024 /rc=_RC_FLOATING_EXCEPTION_ ---
*** files: xmldump
    saved to directory /home/grierjones/DDCASPT2/iron_oxo_DDCASPT2/cluster/5.62

.########################.
.# Non-zero return code #.
.########################.

    Timing: Wall=1.67 User=1.43 System=0.23
************************************
*** WorkDir at /tmp/5.62 cleaned ***
************************************
