   This run of MOLCAS is using the pymolcas driver

                             OPE
                             OPE          NMOL  CASOP  ENMOLC A   SO
                 OPE        NMOLC        AS  OP EN  MO LC     AS  OP
                OPENM       OL CA        SO  PE NM  OL CA     SOP EN
                OP EN      MO   LC       AS  OP ENMOL  CASO   PENMOL
                OP  EN     MO   LC       AS  OP EN     MO     LC ASO
               OP   E  NMOL  C  AS       OP  EN MO     LC     AS  OP
               OP  E   NMO   LC AS        OPEN  MO     LCASOP EN   M
               O  PEN   MO  LCA  SO
            OPE   NMO   L   CAS    OP
        OPENMOL  CASOP     ENMOL   CASOPE
     OPENMOLCA   SOPENMOLCASOPEN   MOLCASOPE
    OPENMOLCAS   OP           EN   MOL    CAS
    OPENMOLCAS       OP  ENM        O     LCA
    OPENMOLCAS    OPEN  MOLCASO     P  E  NMO
    OPENMOLCAS     OP               E  N  MOL
    OPENMOLCA   SO           PENM   O  L  CAS    OPEN    MO    LCAS
    OPENMOLCA   SOP           ENM   O  L  CAS   OP  EN  MOLC  AS   O
    OPENMOLCA   SOPE           NM      O  LCA   S      OP  EN MO
    OPENMOLC                AS         O  PEN   M      OL  CA  SOPE
    OPENMO        LCASOPE  NMOL        C  ASO   P      ENMOLC     AS
    OPE     NMO      LCA  SO     P     E   NM   OL  CA SO  PE N   MO
          OPENMOLCA            SOPE   NMO        LCAS  O    P  ENMO
     OPENMOLCASOPENMOLCASOPENMOLCASOPENMOLCA
        OPENMOLCASOPENMOLCASOPENMOLCASOPE
            OPENMOLCASOPENMOLCASOPENM
               OPENMOLCASOPENMOLCA        version: ea724fe96-dirty
                   OPENMOLCASO
                       OPE                tag:

 OpenMolcas is free software; you can redistribute it and/or modify it
 under the terms of the GNU Lesser General Public License version 2.1.
 OpenMolcas is distributed in the hope that it will be useful, but it
 is provided "as is" and without any express or implied warranties.
 For more details see the full text of the license in the file
 LICENSE or in <http://www.gnu.org/licenses/>.

                 Copyright (C) The OpenMolcas Authors
           For the author list and the recommended citation,
                   consult the file CONTRIBUTORS.md

           *************************************************
           * pymolcas version py2.28                       *
           *   build c4a6d18ded8cb6cad61d2372a9abd97c      *
           *   (after the EMIL interpreter by V. Veryazov) *
           *************************************************

configuration info
------------------
C Compiler ID: Intel
C flags: -std=gnu99
Fortran Compiler ID: Intel
Fortran flags: -fpp -i8 -r8 -heap-arrays
Definitions: _MOLCAS_;_I8_;_LINUX_
Parallel: OFF (GA=OFF)


   -------------------------------------------------------------------------------
  |
  |              Project: 4.82
  |       Submitted from: /home/grierjones/DDCASPT2/iron_oxo_DDCASPT2/cluster/4.82
  |         Scratch area: /tmp/4.82
  |      Save outputs to: /home/grierjones/DDCASPT2/iron_oxo_DDCASPT2/cluster/4.82
  |               Molcas: /home/grierjones/Test/build
  |
  | Scratch area is empty
  |
  |       MOLCAS_DRIVER = /usr/local/pymolcas
  | MOLCAS_KEEP_WORKDIR = NO
  |  MOLCAS_NEW_WORKDIR = YES
  |       MOLCAS_NPROCS = 1
  |        MOLCAS_PRINT = NORMAL
  |       MOLCAS_SOURCE = /home/grierjones/Test/build
  |    MOLCAS_STRUCTURE = 0
  |
   -------------------------------------------------------------------------------

++ ---------   Input file   ---------

&GATEWAY
coord=4.82.xyz
Basis = ANO-RCC-VDZP
Group = nosymm
Expert
End of Input

&SEWARD
End of Input

&SCF
UHF
charge
2
spin
5

>>> COPY $WorkDir/4.82.scf.h5 $CurrDir/

&RASSCF
Title= RASSCF
FileOrb
/home/grierjones/DDCASPT2/iron_oxo_DDCASPT2/cluster/4.80/4.80.RasOrb
NACTEL
10 0 0
RAS2
14
Symmetry
1
Spin
5
charge
2
orblisting
all
ITERation
300 200

>>> COPY $WorkDir/4.82.rasscf.h5 $CurrDir/

>>> COPY $WorkDir/GMJ_Fock_MO.csv $CurrDir/4.82.GMJ_Fock_MO.csv

>>> COPY $WorkDir/GMJ_PT2_Fock_MO.csv $CurrDir/4.82.GMJ_PT2_Fock_MO.csv

&MOTRA
Frozen=0
LUMORB

>>> COPY $WorkDir/GMJ_one_int_indx.csv $CurrDir/4.82.GMJ_one_int_indx.csv

>>> COPY $WorkDir/GMJ_one_int.csv $CurrDir/4.82.GMJ_one_int.csv

>>> COPY $WorkDir/GMJ_two_int_indx.csv $CurrDir/4.82.GMJ_two_int_indx.csv

>>> COPY $WorkDir/GMJ_two_int.csv $CurrDir/4.82.GMJ_two_int.csv

&CASPT2
Frozen
0
MAXITER
50

>>> FOREACH i IN (B,E,F,G,H)

  >>> FOREACH j IN (P,M)

    >>> IF (-FILE GMJ_e2_${i}_${j}.csv)

      >>> COPY $WorkDir/GMJ_RHS_${i}_${j}.csv $CurrDir/GMJ_RHS_${i}_${j}.csv

      >>> COPY $WorkDir/GMJ_IVECW_${i}_${j}.csv $CurrDir/GMJ_IVECW_${i}_${j}.csv

      >>> COPY $WorkDir/GMJ_IVECX_${i}_${j}.csv $CurrDir/GMJ_IVECX_${i}_${j}.csv

      >>> COPY $WorkDir/GMJ_IVECC2_${i}_${j}.csv $CurrDir/GMJ_IVECC2_${i}_${j}.csv

      >>> COPY $WorkDir/GMJ_e2_${i}_${j}.csv $CurrDir/GMJ_e2_${i}_${j}.csv

    >>> END IF

  >>> END FOREACH

>>> END FOREACH

>>> FOREACH i IN (A,C,D)

  >>> IF (-FILE GMJ_e2_$i.csv)

    >>> COPY $WorkDir/GMJ_RHS_$i.csv $CurrDir/GMJ_RHS_$i.csv

    >>> COPY $WorkDir/GMJ_IVECW_$i.csv $CurrDir/GMJ_IVECW_$i.csv

    >>> COPY $WorkDir/GMJ_IVECX_$i.csv $CurrDir/GMJ_IVECX_$i.csv

    >>> COPY $WorkDir/GMJ_IVECC2_$i.csv $CurrDir/GMJ_IVECC2_$i.csv

    >>> COPY $WorkDir/GMJ_e2_$i.csv $CurrDir/GMJ_e2_$i.csv

  >>> END IF

>>> END FOREACH

-- ----------------------------------

--- Start Module: gateway at Wed Dec 18 04:21:28 2024 ---
 
()()()()()()()()()()()()()()()()()()()()()()()()()()()()()()()()()()()()()()()()()()()()()()()()()()

                                              &GATEWAY

                                   only a single process is used
                       available to each process: 2.0 GB of memory, 1 thread?
()()()()()()()()()()()()()()()()()()()()()()()()()()()()()()()()()()()()()()()()()()()()()()()()()()
 
 ###############################################################################
 ###############################################################################
 ###                                                                         ###
 ###                                                                         ###
 ###                                                                         ###
 ###    WARNING: EXPERT option is ON!                                        ###
 ###                                                                         ###
 ###                                                                         ###
 ###############################################################################
 ###############################################################################
 
++    Symmetry information:
      ---------------------
 
                    Character Table for C1 
 
                             E  
                    a        1  x, y, xy, Rz, z, xz, Ry, yz, Rx, I
--
 
 
++    Basis set information:
      ----------------------
 
 
      Basis set label: O.ANO-RCC...3S2P1D.
 
      Electronic valence basis set:
      ------------------
      Associated Effective Charge   8.000000 au
      Associated Actual Charge      8.000000 au
      Nuclear Model: Point charge
 
      Shell  nPrim  nBasis  Cartesian Spherical Contaminant
         s      14       3        X                  
         p       9       2        X                  
         d       4       1                 X         
 
 
      Basis set label: FE.ANO-RCC...5S4P2D1F.
 
      Electronic valence basis set:
      ------------------
      Associated Effective Charge  26.000000 au
      Associated Actual Charge     26.000000 au
      Nuclear Model: Point charge
 
      Shell  nPrim  nBasis  Cartesian Spherical Contaminant
         s      21       5        X                  
         p      15       4        X                  
         d      10       2                 X         
         f       6       1                 X         
--
 
 
++    Molecular structure info:
      -------------------------
 
                    ************************************************ 
                    **** Cartesian Coordinates / Bohr, Angstrom **** 
                    ************************************************ 
 
     Center  Label                x              y              z                     x              y              z
        1      O1               0.000000       0.000000       6.064301              0.000000       0.000000       3.209090
        2      FE2              0.000000       0.000000      -3.040739              0.000000       0.000000      -1.609090
--
 
 
            Nuclear Potential Energy             22.84448896 au
 
 ###############################################################################
 ###############################################################################
 ###                                                                         ###
 ###                                                                         ###
 ###    There were warnings during the execution                             ###
 ###    Please, check the output with care!                                  ###
 ###                                                                         ###
 ###                                                                         ###
 ###############################################################################
 ###############################################################################
--- Stop Module: gateway at Wed Dec 18 04:21:28 2024 /rc=_RC_ALL_IS_WELL_ ---
*** files: xmldump
    saved to directory /home/grierjones/DDCASPT2/iron_oxo_DDCASPT2/cluster/4.82

--- Start Module: seward at Wed Dec 18 04:21:28 2024 ---
 
()()()()()()()()()()()()()()()()()()()()()()()()()()()()()()()()()()()()()()()()()()()()()()()()()()

                                              &SEWARD

                                   only a single process is used
                       available to each process: 2.0 GB of memory, 1 thread?
()()()()()()()()()()()()()()()()()()()()()()()()()()()()()()()()()()()()()()()()()()()()()()()()()()
 
 ###############################################################################
 ###############################################################################
 ###                                                                         ###
 ###                                                                         ###
 ###                                                                         ###
 ###    WARNING: EXPERT option is ON!                                        ###
 ###                                                                         ###
 ###                                                                         ###
 ###############################################################################
 ###############################################################################
               SEWARD will generate:
                  Multipole Moment integrals up to order  2
                  Kinetic Energy integrals
                  Nuclear Attraction integrals (point charge)
                  One-Electron Hamiltonian integrals
                  Velocity integrals
                  Relativistic Douglas-Kroll-Hess integrals:
                    - Parametrization         : EXP
                    - DKH order of Hamiltonian: 2
                    - DKH order of Properties : 0
                         - multipole moment operators
                         - electric potential operators
                         - contact operators
                  Atomic mean-field integrals
                  Two-Electron Repulsion integrals
 
                   Integrals are discarded if absolute value <: 0.10E-13
                   Integral cutoff threshold is set to       <: 0.10E-15
 
            Nuclear Potential Energy             22.84448896 au
 
 
      Basis set specifications :
      Symmetry species         a  
      Basis functions           48
 
 
  Input file to MOLDEN was generated!
 
 ###############################################################################
 ###############################################################################
 ###                                                                         ###
 ###                                                                         ###
 ###    There were warnings during the execution                             ###
 ###    Please, check the output with care!                                  ###
 ###                                                                         ###
 ###                                                                         ###
 ###############################################################################
 ###############################################################################
--- Stop Module: seward at Wed Dec 18 04:21:29 2024 /rc=_RC_ALL_IS_WELL_ ---
*** files: 4.82.GssOrb 4.82.guessorb.h5 4.82.guessorb.molden xmldump
    saved to directory /home/grierjones/DDCASPT2/iron_oxo_DDCASPT2/cluster/4.82

*** symbolic link created: INPORB -> 4.82.GssOrb
--- Start Module: scf at Wed Dec 18 04:21:29 2024 ---
 
()()()()()()()()()()()()()()()()()()()()()()()()()()()()()()()()()()()()()()()()()()()()()()()()()()

                                                &SCF

                                   only a single process is used
                       available to each process: 2.0 GB of memory, 1 thread?
()()()()()()()()()()()()()()()()()()()()()()()()()()()()()()()()()()()()()()()()()()()()()()()()()()
 
 *** Possible bug in opening file
 *** isFreeUnit resets the unit number
++    Input section:
      --------------
 
      Header of the integral files:
      
       Integrals generated by seward 4.2.0  , Wed Dec 18 04:21:28 2024
 
 
      Cartesian coordinates in Angstrom:
      -----------------------------------------------------
      No.  Label        X            Y            Z        
      -----------------------------------------------------
       1   O1         0.00000000   0.00000000   3.20909000
       2   FE2        0.00000000   0.00000000  -1.60909000
      -----------------------------------------------------
      Nuclear repulsion energy =   22.84448896
--
 
++    Orbital specifications:
      -----------------------
 
      Symmetry species               1
                                     a
      Frozen orbitals                0
      Start temperature = 0.500
      End temperature   = 0.010
      Temperature Factor= 0.460
      Deleted orbitals               0
      Total number of orbitals      48
      Number of basis functions     48
--
 
      Molecular charge                           2.000
 
++    Optimization specifications:
      ----------------------------
 
      SCF Algorithm: Conventional USCF
      D(i)-D(i-1) density differences are used
      Number of density matrices in core                5
      Maximum number of NDDO SCF iterations           400
      Maximum number of HF SCF iterations             400
      Threshold for SCF energy change            0.10E-08
      Threshold for density matrix               0.10E-03
      Threshold for Fock matrix                  0.15E-03
      Threshold for linear dependence            0.10E-08
      Threshold at which DIIS is turned on       0.15E+00
      Threshold at which QNR/C2DIIS is turned on 0.75E-01
      Threshold for Norm(delta) (QNR/C2DIIS)     0.20E-04
      DIIS extrapolation of the SCF procedure
      All orbitals punched on: UHFORB
--
 
      Input vectors read from INPORB
      Orbital file label: *Guess orbitals
 
 
++ Convergence information
                               UHF SCF        iterations: Energy and convergence statistics
 
Iter     Tot. SCF        One-elec.       Two-elec.     Energy      Max Dij or  Max Fij      DNorm      TNorm      AccCon     Time
         Energy          Energy          Energy        Change      Delta Norm                                                in Sec.
 
 The total and one-electron energies are shifted by a value of      1000. a.u.
 
   1  -343.292849689  -879.134031860   512.996693210   0.00E+00    0.16E+00*   0.36E+00*    0.75E+01   0.18E+03   None         0.
   2  -343.473045946  -874.978760294   508.661225388  -0.18E+00*   0.11E+00*   0.14E+00*    0.10E+01   0.18E+03   EDIIS        0.
   3  -341.606304639  -923.086300870   558.635507271   0.19E+01*   0.60E-01*   0.19E+00*    0.18E+01   0.19E+03   EDIIS        0.
   4  -342.937124921  -863.474333682   497.692719800  -0.13E+01*   0.72E-01*   0.78E-01*    0.15E+01   0.17E+03   EDIIS        0.
   5  -344.062095421  -896.911260097   530.004675715  -0.11E+01*   0.28E-01*   0.40E-01*    0.85E+00   0.18E+03   EDIIS        0.
   6  -344.198847673  -869.204766662   502.161430028  -0.14E+00*   0.30E+00*   0.21E+00*    0.18E+01   0.18E+03   EDIIS        0.
   7  -343.191263981  -911.042040363   545.006287421   0.10E+01*   0.80E-01*   0.37E-01*    0.20E+01   0.18E+03   EDIIS        0.
   8  -344.876667878  -887.571910667   519.850753828  -0.17E+01*   0.24E+00*   0.15E+00*    0.22E+01   0.18E+03   EDIIS        0.
   9  -345.217440973  -875.599161774   507.537231840  -0.34E+00*   0.23E+00*   0.37E+00*    0.16E+01   0.18E+03   EDIIS        0.
  10  -345.290908780  -880.664056548   512.528658807  -0.73E-01*   0.64E-01*   0.86E-01*    0.69E+00   0.18E+03   EDIIS        0.
  11  -345.299403811  -878.770596492   510.626703721  -0.85E-02*   0.33E-01*   0.33E-01*    0.21E+00   0.18E+03   EDIIS        0.
 
       Fermi aufbau procedure completed!
      nOcc(alpha)=   18
      nOcc(beta) =   14
 
  12  -345.300758660  -879.592820521   511.447572900  -0.14E-02*   0.98E-02*   0.84E-02*    0.85E-01   0.18E+03   EDIIS        0.
  13  -345.301034554  -879.275099048   511.129575533  -0.28E-03*   0.83E-02*   0.48E-02*    0.36E-01   0.18E+03   EDIIS        0.
  14  -345.301105880  -879.403048931   511.257454090  -0.71E-04*   0.42E-02*   0.24E-02*    0.18E-01   0.18E+03   EDIIS        0.
  15  -345.301127475  -879.353358280   511.207741845  -0.22E-04*   0.26E-02*   0.15E-02*    0.10E-01   0.18E+03   EDIIS        0.
  16  -345.301134652  -879.372728389   511.227104777  -0.72E-05*   0.67E-03*   0.19E-02*    0.59E-02   0.18E+03   c2DIIS       0.
  17  -345.301138249  -879.356296385   511.210669176  -0.36E-05*   0.80E-03*   0.34E-03*    0.27E-02   0.18E+03   QNRc2DIIS    0.
  18  -345.301138484  -879.371385996   511.225758551  -0.24E-06*   0.27E-03*   0.13E-03     0.11E-02   0.18E+03   QNRc2DIIS    0.
  19  -345.301138532  -879.367584078   511.221956586  -0.48E-07*   0.39E-03*   0.45E-04     0.36E-03   0.18E+03   QNRc2DIIS    0.
  20  -345.301138544  -879.367143325   511.221515821  -0.12E-07*   0.14E-04    0.26E-05     0.51E-03   0.18E+03   QNRc2DIIS    0.
  21  -345.301138544  -879.367141699   511.221514195  -0.27E-10    0.26E-05    0.79E-06     0.20E-04   0.18E+03   QNRc2DIIS    0.
 
       Convergence after 21 Macro Iterations
--
 
 *****************************************************************************************************************************
 *                                                                                                                           *
 *                                             SCF/KS-DFT Program, Final results                                             *
 *                                                                                                                           *
 *                                                                                                                           *
 *                                                                                                                           *
 *                                                       Final Results                                                       *
 *                                                                                                                           *
 *****************************************************************************************************************************
 
::    Total SCF energy                              -1345.3011385438
      One-electron energy                           -1879.3671416995
      Two-electron energy                             511.2215141952
      Nuclear repulsion energy                         22.8444889604
      Kinetic energy (interpolated)                  1399.7945672675
      Virial theorem                                    0.9610704099
      Total spin, S(S+1)                                8.0101580460
      Total spin, S                                     2.3740490681
      Max non-diagonal density matrix element           0.0000012816
      Max non-diagonal Fock matrix element              0.0000002776
 
 
      All orbitals with orbital energies smaller than  E(LUMO)+0.5 are printed
 
++    Molecular orbitals:
      -------------------
 
      Title: UHF orbitals (alpha)

      Molecular orbitals for symmetry species 1: a  
 
          Orbital            1         2         3         4         5         6         7         8         9        10    
          Energy         -264.6161  -33.4937  -28.5575  -28.5575  -28.5575  -20.8565   -5.4419   -3.9818   -3.9818   -3.9818
          Occ. No.          1.0000    1.0000    1.0000    1.0000    1.0000    1.0000    1.0000    1.0000    1.0000    1.0000
 
        1 O1     1s        -0.0000   -0.0000   -0.0000   -0.0000    0.0000    1.0000   -0.0000   -0.0000    0.0000   -0.0000
        2 O1     2s        -0.0000   -0.0000   -0.0000   -0.0000    0.0000   -0.0022   -0.0003   -0.0000    0.0000   -0.0002
        3 O1     3s        -0.0000   -0.0000   -0.0001   -0.0000    0.0000    0.0004   -0.0005   -0.0000    0.0000   -0.0002
        4 O1     2px       -0.0000   -0.0000   -0.0000   -0.0000   -0.0000    0.0000   -0.0000   -0.0000    0.0000    0.0000
        5 O1     3px        0.0000    0.0000   -0.0000   -0.0000   -0.0000   -0.0000    0.0000   -0.0001    0.0000    0.0000
        6 O1     2py        0.0000   -0.0000    0.0000   -0.0000    0.0000    0.0000    0.0000   -0.0000   -0.0000   -0.0000
        7 O1     3py        0.0000    0.0000    0.0000   -0.0000    0.0000   -0.0000   -0.0000   -0.0000   -0.0001   -0.0000
        8 O1     2pz        0.0000    0.0000    0.0000    0.0000   -0.0000   -0.0001    0.0002    0.0000   -0.0000    0.0001
        9 O1     3pz        0.0000    0.0000    0.0001    0.0000   -0.0000    0.0000    0.0005    0.0000   -0.0000    0.0001
       10 O1     3d2-      -0.0000    0.0000   -0.0000   -0.0000   -0.0000    0.0000   -0.0000   -0.0000    0.0000    0.0000
       11 O1     3d1-       0.0000    0.0000   -0.0000    0.0000   -0.0000   -0.0000   -0.0000    0.0000    0.0000    0.0000
       12 O1     3d0        0.0000   -0.0000   -0.0000   -0.0000    0.0000    0.0009   -0.0000   -0.0000    0.0000   -0.0000
       13 O1     3d1+      -0.0000    0.0000    0.0000    0.0000    0.0000    0.0000    0.0000    0.0000   -0.0000   -0.0000
       14 O1     3d2+      -0.0000   -0.0000    0.0000    0.0000    0.0000    0.0000   -0.0000   -0.0000   -0.0000    0.0000
       15 FE2    1s         1.0000   -0.0000   -0.0000   -0.0000   -0.0000   -0.0000    0.0000    0.0000   -0.0000    0.0000
       16 FE2    2s         0.0000    1.0000   -0.0000   -0.0000    0.0000   -0.0000   -0.0035   -0.0000    0.0000   -0.0000
       17 FE2    3s        -0.0000    0.0035    0.0000    0.0000   -0.0000   -0.0000    0.9999   -0.0000    0.0000   -0.0000
       18 FE2    4s         0.0000   -0.0003    0.0000    0.0000   -0.0000   -0.0000   -0.0076    0.0000   -0.0000    0.0000
       19 FE2    5s        -0.0000    0.0004    0.0000    0.0000   -0.0000   -0.0001    0.0083    0.0000   -0.0000    0.0000
       20 FE2    2px        0.0000   -0.0000    0.0000    0.0821    0.9966   -0.0000   -0.0000   -0.0032    0.0014    0.0000
       21 FE2    3px       -0.0000    0.0000    0.0000    0.0003    0.0034   -0.0000    0.0000    0.9150   -0.4027   -0.0000
       22 FE2    4px        0.0000   -0.0000   -0.0000   -0.0000   -0.0006    0.0000    0.0000   -0.0176    0.0077    0.0000
       23 FE2    5px       -0.0000    0.0000    0.0000    0.0001    0.0015   -0.0000   -0.0000    0.0167   -0.0073   -0.0000
       24 FE2    2py       -0.0000    0.0000   -0.0000    0.9966   -0.0821    0.0000    0.0000   -0.0014   -0.0032   -0.0000
       25 FE2    3py        0.0000   -0.0000   -0.0000    0.0034   -0.0003    0.0000   -0.0000    0.4027    0.9150    0.0000
       26 FE2    4py       -0.0000    0.0000    0.0000   -0.0006    0.0000   -0.0000   -0.0000   -0.0077   -0.0176   -0.0000
       27 FE2    5py       -0.0000   -0.0000   -0.0000    0.0015   -0.0001    0.0000    0.0000    0.0073    0.0167    0.0000
       28 FE2    2pz        0.0000    0.0000    1.0000    0.0000   -0.0000    0.0000   -0.0000   -0.0000    0.0000   -0.0035
       29 FE2    3pz       -0.0000    0.0000    0.0035    0.0000   -0.0000   -0.0000    0.0000    0.0000   -0.0000    0.9996
       30 FE2    4pz        0.0000    0.0000   -0.0006   -0.0000    0.0000   -0.0000    0.0001   -0.0000    0.0000   -0.0192
       31 FE2    5pz        0.0000    0.0000    0.0015    0.0000   -0.0000   -0.0000    0.0001    0.0000   -0.0000    0.0182
       32 FE2    3d2-      -0.0000    0.0000   -0.0000    0.0000    0.0000    0.0000   -0.0000    0.0000   -0.0000   -0.0000
       33 FE2    4d2-       0.0000   -0.0000    0.0000   -0.0000   -0.0000   -0.0000    0.0000    0.0000    0.0000    0.0000
       34 FE2    3d1-      -0.0000    0.0000   -0.0000    0.0000   -0.0000   -0.0000   -0.0000    0.0000    0.0000    0.0000
       35 FE2    4d1-      -0.0000   -0.0000   -0.0000    0.0000   -0.0000    0.0000    0.0000   -0.0000   -0.0000   -0.0000
       36 FE2    3d0        0.0000    0.0000    0.0000    0.0000   -0.0000   -0.0000   -0.0000    0.0000   -0.0000    0.0000
       37 FE2    4d0        0.0000    0.0000    0.0000    0.0000   -0.0000   -0.0000    0.0001    0.0000    0.0000   -0.0000
       38 FE2    3d1+       0.0000   -0.0000    0.0000    0.0000    0.0000    0.0000    0.0000    0.0000   -0.0000   -0.0000
       39 FE2    4d1+      -0.0000   -0.0000    0.0000    0.0000    0.0000    0.0000   -0.0000   -0.0000    0.0000    0.0000
       40 FE2    3d2+       0.0000   -0.0000    0.0000    0.0000   -0.0000    0.0000    0.0000    0.0000   -0.0000    0.0000
       41 FE2    4d2+      -0.0000    0.0000   -0.0000   -0.0000    0.0000   -0.0000   -0.0000   -0.0000    0.0000   -0.0000
       42 FE2    4f3-      -0.0000    0.0000   -0.0000   -0.0000    0.0000    0.0000   -0.0000   -0.0000   -0.0000    0.0000
       43 FE2    4f2-       0.0000   -0.0000    0.0000   -0.0000    0.0000   -0.0000    0.0000   -0.0000   -0.0000   -0.0000
       44 FE2    4f1-       0.0000   -0.0000   -0.0000    0.0000   -0.0000    0.0000   -0.0000   -0.0000   -0.0000   -0.0000
       45 FE2    4f0        0.0000    0.0000    0.0000    0.0000   -0.0000   -0.0000    0.0000   -0.0000    0.0000   -0.0000
       46 FE2    4f1+      -0.0000   -0.0000    0.0000    0.0000    0.0000   -0.0000   -0.0000   -0.0000    0.0000    0.0000
       47 FE2    4f2+       0.0000   -0.0000   -0.0000    0.0000    0.0000   -0.0000   -0.0000   -0.0000   -0.0000   -0.0000
       48 FE2    4f3+      -0.0000    0.0000    0.0000   -0.0000    0.0000   -0.0000    0.0000    0.0000   -0.0000    0.0000
 
          Orbital           11        12        13        14        15        16        17        18        19        20    
          Energy           -1.6625   -1.6625   -1.6625   -1.6625   -1.6625   -1.3006   -0.9498   -0.7402   -0.4817   -0.4817
          Occ. No.          1.0000    1.0000    1.0000    1.0000    1.0000    1.0000    1.0000    1.0000    0.0000    0.0000
 
        1 O1     1s         0.0001   -0.0000    0.0000    0.0000    0.0000    0.0021    0.0007    0.0002   -0.0000    0.0000
        2 O1     2s         0.0008   -0.0000    0.0000    0.0000    0.0000    0.9991    0.0046    0.0202   -0.0000    0.0000
        3 O1     3s         0.0008   -0.0000    0.0000    0.0000    0.0000    0.0223    0.0065   -0.0119   -0.0000    0.0000
        4 O1     2px       -0.0000   -0.0000    0.0000    0.0000    0.0003   -0.0000   -0.0000    0.0000   -0.0012   -0.0002
        5 O1     3px       -0.0000   -0.0000    0.0000    0.0001    0.0005   -0.0000   -0.0000    0.0000   -0.0038   -0.0006
        6 O1     2py        0.0000    0.0000   -0.0000    0.0003   -0.0000   -0.0000    0.0000   -0.0000    0.0002   -0.0012
        7 O1     3py        0.0000    0.0000   -0.0000    0.0005   -0.0001    0.0000    0.0000   -0.0000    0.0006   -0.0038
        8 O1     2pz       -0.0008    0.0000   -0.0000   -0.0000   -0.0000   -0.0185   -0.0115    0.9969    0.0000   -0.0000
        9 O1     3pz       -0.0009    0.0000   -0.0000   -0.0000   -0.0000   -0.0070   -0.0057    0.0510    0.0000   -0.0000
       10 O1     3d2-      -0.0000    0.0000   -0.0000   -0.0000    0.0000   -0.0000   -0.0000    0.0000   -0.0000   -0.0000
       11 O1     3d1-      -0.0000   -0.0000    0.0000   -0.0001    0.0000   -0.0000    0.0000   -0.0000    0.0000   -0.0000
       12 O1     3d0        0.0001   -0.0000    0.0000    0.0000    0.0000    0.0297    0.0002   -0.0059   -0.0000    0.0000
       13 O1     3d1+      -0.0000    0.0000   -0.0000   -0.0000   -0.0001    0.0000    0.0000   -0.0000   -0.0000   -0.0000
       14 O1     3d2+      -0.0000    0.0000    0.0000   -0.0000   -0.0000    0.0000    0.0000    0.0000   -0.0000   -0.0000
       15 FE2    1s        -0.0000   -0.0000   -0.0000   -0.0000   -0.0000   -0.0000   -0.0000    0.0000    0.0000   -0.0000
       16 FE2    2s        -0.0000    0.0000   -0.0000   -0.0000    0.0000   -0.0000    0.0004    0.0002    0.0000   -0.0000
       17 FE2    3s         0.0000    0.0000    0.0000    0.0000   -0.0000   -0.0001    0.0101    0.0012   -0.0000   -0.0000
       18 FE2    4s        -0.0002    0.0000   -0.0000   -0.0000    0.0000    0.0005    0.9277    0.0161    0.0000   -0.0000
       19 FE2    5s        -0.0003    0.0000   -0.0000   -0.0000    0.0000   -0.0008   -0.3720   -0.0094    0.0000   -0.0000
       20 FE2    2px       -0.0000    0.0000    0.0000   -0.0000   -0.0000    0.0000   -0.0000    0.0000    0.0005    0.0001
       21 FE2    3px        0.0000    0.0000   -0.0000   -0.0000   -0.0000   -0.0000    0.0000   -0.0000    0.0183    0.0031
       22 FE2    4px        0.0000    0.0000   -0.0000   -0.0000   -0.0001   -0.0000    0.0000   -0.0000    0.9855    0.1664
       23 FE2    5px       -0.0000    0.0000   -0.0000   -0.0000   -0.0000    0.0000   -0.0000    0.0000    0.0320    0.0054
       24 FE2    2py       -0.0000   -0.0000    0.0000   -0.0000    0.0000    0.0000   -0.0000    0.0000   -0.0001    0.0005
       25 FE2    3py       -0.0000   -0.0000    0.0000   -0.0000    0.0000   -0.0000   -0.0000   -0.0000   -0.0031    0.0183
       26 FE2    4py        0.0000   -0.0000    0.0000   -0.0001    0.0000    0.0000   -0.0000   -0.0000   -0.1664    0.9855
       27 FE2    5py        0.0000   -0.0000    0.0000   -0.0000    0.0000    0.0000    0.0000    0.0000   -0.0054    0.0320
       28 FE2    2pz       -0.0000    0.0000   -0.0000    0.0000    0.0000   -0.0000   -0.0000    0.0000    0.0000   -0.0000
       29 FE2    3pz       -0.0001    0.0000   -0.0000   -0.0000   -0.0000   -0.0001   -0.0001    0.0003    0.0000   -0.0000
       30 FE2    4pz       -0.0005    0.0000   -0.0000   -0.0000    0.0000    0.0003   -0.0065   -0.0229    0.0000   -0.0000
       31 FE2    5pz       -0.0001    0.0000   -0.0000   -0.0000   -0.0000   -0.0001   -0.0004   -0.0011    0.0000   -0.0000
       32 FE2    3d2-       0.0000    0.8480   -0.5122   -0.0000    0.0000    0.0000    0.0000   -0.0000    0.0000   -0.0000
       33 FE2    4d2-      -0.0000   -0.1167    0.0705    0.0000   -0.0000    0.0000   -0.0000   -0.0000   -0.0000    0.0000
       34 FE2    3d1-      -0.0000    0.0000   -0.0000    0.9832   -0.1209    0.0000    0.0000    0.0000   -0.0000    0.0000
       35 FE2    4d1-       0.0000   -0.0000    0.0000   -0.1354    0.0166    0.0000   -0.0000   -0.0000    0.0001   -0.0006
       36 FE2    3d0        0.9906   -0.0000    0.0000    0.0000    0.0000   -0.0002   -0.0001    0.0005    0.0000   -0.0000
       37 FE2    4d0       -0.1365    0.0000   -0.0000   -0.0000   -0.0000    0.0003   -0.0009   -0.0034   -0.0000    0.0000
       38 FE2    3d1+      -0.0000   -0.0000    0.0000    0.1209    0.9832    0.0000   -0.0000   -0.0000    0.0000    0.0000
       39 FE2    4d1+       0.0000    0.0000   -0.0000   -0.0166   -0.1354   -0.0000    0.0000   -0.0000   -0.0006   -0.0001
       40 FE2    3d2+      -0.0000    0.5122    0.8480   -0.0000    0.0000    0.0000    0.0000   -0.0000   -0.0000   -0.0000
       41 FE2    4d2+       0.0000   -0.0705   -0.1167    0.0000   -0.0000    0.0000   -0.0000   -0.0000    0.0000    0.0000
       42 FE2    4f3-      -0.0000    0.0000    0.0000   -0.0000    0.0000   -0.0000   -0.0000    0.0000   -0.0000    0.0000
       43 FE2    4f2-       0.0000    0.0000   -0.0000   -0.0000    0.0000   -0.0000    0.0000    0.0000   -0.0000   -0.0000
       44 FE2    4f1-      -0.0000    0.0000   -0.0000    0.0000   -0.0000   -0.0000   -0.0000   -0.0000    0.0000   -0.0000
       45 FE2    4f0        0.0000   -0.0000    0.0000    0.0000    0.0000    0.0000   -0.0000   -0.0001   -0.0000    0.0000
       46 FE2    4f1+      -0.0000   -0.0000    0.0000    0.0000    0.0000   -0.0000   -0.0000   -0.0000   -0.0000   -0.0000
       47 FE2    4f2+      -0.0000    0.0000    0.0000   -0.0000    0.0000   -0.0000   -0.0000   -0.0000    0.0000   -0.0000
       48 FE2    4f3+      -0.0000   -0.0000    0.0000    0.0000    0.0000   -0.0000   -0.0000    0.0000    0.0000   -0.0000
 
          Orbital           21        22        23        24    
          Energy           -0.4809   -0.2471   -0.1306   -0.1306
          Occ. No.          0.0000    0.0000    0.0000    0.0000
 
        1 O1     1s        -0.0017   -0.0049    0.0000   -0.0000
        2 O1     2s        -0.0256   -0.0610    0.0000    0.0000
        3 O1     3s        -0.0096   -0.0144   -0.0000   -0.0000
        4 O1     2px        0.0000    0.0000    0.9448    0.0256
        5 O1     3px        0.0000    0.0000    0.3253    0.0088
        6 O1     2py       -0.0000   -0.0000   -0.0256    0.9448
        7 O1     3py       -0.0000   -0.0000   -0.0088    0.3253
        8 O1     2pz        0.0627    0.0653   -0.0000    0.0000
        9 O1     3pz        0.0160    0.0157   -0.0000    0.0000
       10 O1     3d2-      -0.0000   -0.0000    0.0000    0.0000
       11 O1     3d1-       0.0000    0.0000    0.0002   -0.0057
       12 O1     3d0       -0.0003   -0.0001    0.0000   -0.0000
       13 O1     3d1+      -0.0000   -0.0000   -0.0057   -0.0002
       14 O1     3d2+      -0.0000    0.0000   -0.0000   -0.0000
       15 FE2    1s         0.0000    0.0000   -0.0000    0.0000
       16 FE2    2s         0.0000   -0.0002   -0.0000    0.0000
       17 FE2    3s         0.0002   -0.0046   -0.0000    0.0000
       18 FE2    4s         0.0068    0.3742   -0.0000    0.0000
       19 FE2    5s        -0.0011    0.9350   -0.0000    0.0000
       20 FE2    2px       -0.0000   -0.0000   -0.0000   -0.0000
       21 FE2    3px       -0.0000   -0.0000   -0.0007   -0.0000
       22 FE2    4px       -0.0000   -0.0000   -0.0161   -0.0004
       23 FE2    5px       -0.0000   -0.0000    0.0023    0.0001
       24 FE2    2py        0.0000    0.0000    0.0000   -0.0000
       25 FE2    3py        0.0000    0.0000    0.0000   -0.0007
       26 FE2    4py        0.0000    0.0000    0.0004   -0.0161
       27 FE2    5py        0.0000   -0.0000   -0.0001    0.0023
       28 FE2    2pz        0.0005    0.0000    0.0000   -0.0000
       29 FE2    3pz        0.0188    0.0003   -0.0000    0.0000
       30 FE2    4pz        1.0023    0.0078   -0.0000    0.0000
       31 FE2    5pz        0.0326   -0.0007    0.0000   -0.0000
       32 FE2    3d2-      -0.0000    0.0000   -0.0000   -0.0000
       33 FE2    4d2-       0.0000    0.0000   -0.0000   -0.0000
       34 FE2    3d1-      -0.0000    0.0000   -0.0000    0.0018
       35 FE2    4d1-      -0.0000   -0.0000   -0.0005    0.0171
       36 FE2    3d0        0.0002   -0.0002    0.0000   -0.0000
       37 FE2    4d0       -0.0013   -0.0027    0.0000   -0.0000
       38 FE2    3d1+      -0.0000   -0.0000    0.0018    0.0000
       39 FE2    4d1+       0.0000    0.0000    0.0171    0.0005
       40 FE2    3d2+       0.0000    0.0000   -0.0000   -0.0000
       41 FE2    4d2+      -0.0000   -0.0000   -0.0000    0.0000
       42 FE2    4f3-      -0.0000   -0.0000   -0.0000   -0.0000
       43 FE2    4f2-      -0.0000   -0.0000    0.0000    0.0000
       44 FE2    4f1-      -0.0000   -0.0000   -0.0000    0.0002
       45 FE2    4f0       -0.0001   -0.0000    0.0000   -0.0000
       46 FE2    4f1+       0.0000   -0.0000    0.0002    0.0000
       47 FE2    4f2+       0.0000   -0.0000    0.0000    0.0000
       48 FE2    4f3+       0.0000   -0.0000   -0.0000   -0.0000
--
 
 
  Input file to MOLDEN was generated!
 
 
++    Static properties:
      ------------------
 
 
      LoProp Charges per center
 

                   O1       FE2   
      Nuclear      8.0000  26.0000
      Electronic  -7.9993 -24.0007
 
      Total        0.0007   1.9993
--
 
 
      All orbitals with orbital energies smaller than  E(LUMO)+0.5 are printed
 
++    Molecular orbitals:
      -------------------
 
      Title: UHF orbitals (beta)

      Molecular orbitals for symmetry species 1: a  
 
          Orbital            1         2         3         4         5         6         7         8         9        10    
          Energy         -264.6082  -33.3170  -28.3851  -28.3851  -28.3851  -20.9417   -4.9677   -3.4193   -3.4193   -3.4193
          Occ. No.          1.0000    1.0000    1.0000    1.0000    1.0000    1.0000    1.0000    1.0000    1.0000    1.0000
 
        1 O1     1s        -0.0000    0.0000   -0.0000    0.0000    0.0000    1.0000   -0.0000    0.0000   -0.0000    0.0000
        2 O1     2s        -0.0000    0.0000   -0.0000    0.0000    0.0000    0.0019   -0.0001    0.0000   -0.0000    0.0001
        3 O1     3s        -0.0000    0.0000   -0.0000    0.0000    0.0001   -0.0017   -0.0002    0.0000   -0.0000    0.0002
        4 O1     2px       -0.0000   -0.0000    0.0000    0.0000   -0.0000    0.0000   -0.0000    0.0000   -0.0000    0.0000
        5 O1     3px        0.0000    0.0000    0.0000    0.0000   -0.0000   -0.0000    0.0000    0.0001   -0.0000   -0.0000
        6 O1     2py        0.0000   -0.0000    0.0000   -0.0000    0.0000    0.0000    0.0000    0.0000    0.0000   -0.0000
        7 O1     3py        0.0000    0.0000    0.0000   -0.0000    0.0000   -0.0000   -0.0000    0.0000    0.0001    0.0000
        8 O1     2pz        0.0000   -0.0000    0.0000   -0.0000   -0.0000   -0.0001    0.0001    0.0000    0.0000   -0.0001
        9 O1     3pz        0.0000   -0.0000    0.0000   -0.0000   -0.0001    0.0001    0.0002   -0.0000    0.0000   -0.0004
       10 O1     3d2-      -0.0000    0.0000   -0.0000   -0.0000   -0.0000    0.0000   -0.0000   -0.0000    0.0000    0.0000
       11 O1     3d1-       0.0000    0.0000   -0.0000    0.0000   -0.0000    0.0000   -0.0000   -0.0000   -0.0000   -0.0000
       12 O1     3d0        0.0000    0.0000   -0.0000    0.0000    0.0000   -0.0004   -0.0000    0.0000   -0.0000    0.0000
       13 O1     3d1+      -0.0000    0.0000   -0.0000   -0.0000    0.0000   -0.0000    0.0000   -0.0000    0.0000   -0.0000
       14 O1     3d2+      -0.0000   -0.0000    0.0000    0.0000    0.0000   -0.0000   -0.0000   -0.0000   -0.0000    0.0000
       15 FE2    1s         1.0000   -0.0000    0.0000   -0.0000   -0.0000    0.0000    0.0000    0.0000   -0.0000   -0.0000
       16 FE2    2s         0.0000    1.0000    0.0000   -0.0000   -0.0000    0.0000    0.0011   -0.0000    0.0000   -0.0000
       17 FE2    3s        -0.0000   -0.0011   -0.0000    0.0000    0.0000    0.0000    1.0000   -0.0000    0.0000   -0.0001
       18 FE2    4s         0.0000    0.0002    0.0000   -0.0000   -0.0000    0.0000   -0.0028   -0.0000    0.0000   -0.0000
       19 FE2    5s        -0.0000   -0.0002    0.0000   -0.0000   -0.0000    0.0001    0.0033   -0.0000    0.0000   -0.0001
       20 FE2    2px        0.0000   -0.0000    0.0275    0.9996   -0.0000   -0.0000   -0.0000    0.0032   -0.0004   -0.0000
       21 FE2    3px       -0.0000    0.0000   -0.0001   -0.0032    0.0000   -0.0000    0.0000    0.9926   -0.1210   -0.0000
       22 FE2    4px        0.0000   -0.0000    0.0000    0.0004   -0.0000    0.0000    0.0000   -0.0114    0.0014    0.0000
       23 FE2    5px       -0.0000    0.0000   -0.0000   -0.0011    0.0000   -0.0000   -0.0000    0.0055   -0.0007   -0.0000
       24 FE2    2py        0.0000    0.0000    0.9996   -0.0275    0.0000    0.0000    0.0000    0.0004    0.0032    0.0000
       25 FE2    3py        0.0000   -0.0000   -0.0032    0.0001   -0.0000    0.0000    0.0000    0.1210    0.9926    0.0000
       26 FE2    4py       -0.0000    0.0000    0.0004   -0.0000    0.0000    0.0000   -0.0000   -0.0014   -0.0114   -0.0000
       27 FE2    5py       -0.0000   -0.0000   -0.0011    0.0000   -0.0000    0.0000    0.0000    0.0007    0.0055    0.0000
       28 FE2    2pz        0.0000    0.0000   -0.0000    0.0000    1.0000    0.0000   -0.0000    0.0000   -0.0000    0.0032
       29 FE2    3pz       -0.0000    0.0000    0.0000   -0.0000   -0.0032    0.0000    0.0001    0.0000   -0.0000    0.9999
       30 FE2    4pz        0.0000   -0.0000   -0.0000    0.0000    0.0004    0.0000    0.0000   -0.0000    0.0000   -0.0115
       31 FE2    5pz       -0.0000   -0.0000    0.0000   -0.0000   -0.0011    0.0000    0.0000    0.0000   -0.0000    0.0055
       32 FE2    3d2-      -0.0000    0.0000   -0.0000   -0.0000   -0.0000    0.0000   -0.0000    0.0000   -0.0000   -0.0000
       33 FE2    4d2-       0.0000    0.0000   -0.0000    0.0000    0.0000   -0.0000    0.0000    0.0000    0.0000    0.0000
       34 FE2    3d1-      -0.0000    0.0000    0.0000   -0.0000    0.0000   -0.0000   -0.0000    0.0000    0.0001    0.0000
       35 FE2    4d1-      -0.0000   -0.0000   -0.0000    0.0000   -0.0000    0.0000    0.0000   -0.0000   -0.0000   -0.0000
       36 FE2    3d0        0.0000   -0.0000    0.0000   -0.0000   -0.0000    0.0000   -0.0000    0.0000   -0.0000    0.0001
       37 FE2    4d0        0.0000   -0.0000    0.0000   -0.0000   -0.0000    0.0000    0.0000   -0.0000    0.0000   -0.0000
       38 FE2    3d1+       0.0000   -0.0000    0.0000    0.0000   -0.0000   -0.0000    0.0000    0.0001   -0.0000   -0.0000
       39 FE2    4d1+      -0.0000   -0.0000   -0.0000   -0.0000    0.0000    0.0000   -0.0000   -0.0000    0.0000    0.0000
       40 FE2    3d2+       0.0000   -0.0000   -0.0000   -0.0000    0.0000    0.0000    0.0000    0.0000   -0.0000    0.0000
       41 FE2    4d2+      -0.0000    0.0000    0.0000    0.0000   -0.0000   -0.0000   -0.0000   -0.0000    0.0000   -0.0000
       42 FE2    4f3-      -0.0000    0.0000   -0.0000    0.0000   -0.0000    0.0000   -0.0000    0.0000   -0.0000    0.0000
       43 FE2    4f2-       0.0000   -0.0000   -0.0000    0.0000    0.0000   -0.0000    0.0000   -0.0000   -0.0000   -0.0000
       44 FE2    4f1-       0.0000   -0.0000   -0.0000    0.0000   -0.0000    0.0000    0.0000   -0.0000   -0.0000   -0.0000
       45 FE2    4f0        0.0000   -0.0000    0.0000   -0.0000   -0.0000    0.0000   -0.0000   -0.0000    0.0000   -0.0000
       46 FE2    4f1+      -0.0000   -0.0000   -0.0000   -0.0000    0.0000   -0.0000   -0.0000   -0.0000    0.0000    0.0000
       47 FE2    4f2+       0.0000   -0.0000   -0.0000    0.0000   -0.0000   -0.0000   -0.0000   -0.0000   -0.0000    0.0000
       48 FE2    4f3+      -0.0000    0.0000    0.0000    0.0000    0.0000   -0.0000    0.0000    0.0000    0.0000    0.0000
 
          Orbital           11        12        13        14        15        16        17        18        19        20    
          Energy           -1.6435   -0.9337   -0.9337   -0.8358   -0.5732   -0.5712   -0.5712   -0.5711   -0.5711   -0.5711
          Occ. No.          1.0000    1.0000    1.0000    1.0000    0.0000    0.0000    0.0000    0.0000    0.0000    0.0000
 
        1 O1     1s        -0.0019   -0.0000   -0.0000    0.0001    0.0001    0.0000   -0.0000    0.0000    0.0000   -0.0002
        2 O1     2s         0.9994    0.0000   -0.0000    0.0148   -0.0007    0.0000   -0.0000    0.0000    0.0000   -0.0033
        3 O1     3s        -0.0285   -0.0000   -0.0000   -0.0112    0.0015    0.0000   -0.0000    0.0000    0.0000   -0.0012
        4 O1     2px        0.0000   -0.2773    0.9596    0.0000    0.0000    0.0000    0.0000   -0.0015   -0.0005    0.0000
        5 O1     3px       -0.0000    0.0134   -0.0464   -0.0000    0.0000    0.0000    0.0000   -0.0011   -0.0003   -0.0000
        6 O1     2py        0.0000    0.9596    0.2773   -0.0000   -0.0000   -0.0000   -0.0000    0.0005   -0.0015   -0.0000
        7 O1     3py       -0.0000   -0.0464   -0.0134    0.0000    0.0000   -0.0000   -0.0000    0.0003   -0.0011    0.0000
        8 O1     2pz       -0.0153    0.0000   -0.0000    0.9995    0.0159   -0.0000    0.0000   -0.0000   -0.0000    0.0121
        9 O1     3pz       -0.0034   -0.0000    0.0000   -0.0087   -0.0013   -0.0000    0.0000   -0.0000   -0.0000    0.0030
       10 O1     3d2-      -0.0000   -0.0000    0.0000    0.0000   -0.0000   -0.0000   -0.0000    0.0000   -0.0000   -0.0000
       11 O1     3d1-       0.0000   -0.0052   -0.0015    0.0000    0.0000    0.0000    0.0000   -0.0000    0.0000   -0.0000
       12 O1     3d0       -0.0209   -0.0000   -0.0000   -0.0072    0.0002    0.0000    0.0000    0.0000    0.0000   -0.0000
       13 O1     3d1+      -0.0000    0.0015   -0.0052   -0.0000    0.0000   -0.0000   -0.0000    0.0000    0.0000   -0.0000
       14 O1     3d2+      -0.0000   -0.0000   -0.0000    0.0000    0.0000   -0.0000    0.0000   -0.0000    0.0000    0.0000
       15 FE2    1s        -0.0000   -0.0000   -0.0000    0.0000   -0.0000   -0.0000    0.0000   -0.0000   -0.0000    0.0000
       16 FE2    2s        -0.0000    0.0000    0.0000    0.0001   -0.0002    0.0000   -0.0000    0.0000   -0.0000   -0.0000
       17 FE2    3s        -0.0000   -0.0000    0.0000    0.0006    0.0035   -0.0000    0.0000   -0.0000    0.0000    0.0004
       18 FE2    4s        -0.0005    0.0000   -0.0000   -0.0061    0.9646   -0.0000    0.0000   -0.0000    0.0000    0.0899
       19 FE2    5s        -0.0012    0.0000   -0.0000    0.0016   -0.2466    0.0000   -0.0000    0.0000   -0.0000   -0.0224
       20 FE2    2px        0.0000    0.0000   -0.0000    0.0000   -0.0000    0.0000    0.0000   -0.0000   -0.0000   -0.0000
       21 FE2    3px       -0.0000    0.0000   -0.0000   -0.0000    0.0000   -0.0000    0.0000   -0.0001   -0.0000    0.0000
       22 FE2    4px        0.0000    0.0001   -0.0004   -0.0000    0.0000   -0.0000   -0.0000    0.0002    0.0001    0.0000
       23 FE2    5px        0.0000    0.0000   -0.0001    0.0000   -0.0000    0.0000   -0.0000   -0.0000   -0.0000   -0.0000
       24 FE2    2py        0.0000   -0.0000   -0.0000    0.0000    0.0000   -0.0000    0.0000    0.0000   -0.0000   -0.0000
       25 FE2    3py       -0.0000   -0.0000   -0.0000   -0.0000    0.0000   -0.0000   -0.0000    0.0000   -0.0001   -0.0000
       26 FE2    4py       -0.0000   -0.0004   -0.0001   -0.0000   -0.0000    0.0000    0.0000   -0.0001    0.0002   -0.0000
       27 FE2    5py        0.0000   -0.0001   -0.0000    0.0000    0.0000   -0.0000   -0.0000    0.0000   -0.0000    0.0000
       28 FE2    2pz       -0.0000   -0.0000    0.0000    0.0000    0.0000   -0.0000    0.0000    0.0000    0.0000   -0.0000
       29 FE2    3pz       -0.0000    0.0000   -0.0000    0.0004   -0.0000    0.0000    0.0000   -0.0000   -0.0000   -0.0001
       30 FE2    4pz       -0.0007    0.0000   -0.0000   -0.0041   -0.0016    0.0000    0.0000    0.0000    0.0000   -0.0003
       31 FE2    5pz       -0.0004   -0.0000   -0.0000   -0.0004   -0.0003    0.0000   -0.0000    0.0000    0.0000   -0.0001
       32 FE2    3d2-      -0.0000    0.0000    0.0000    0.0000   -0.0000    0.2160    0.9682    0.0000   -0.0000   -0.0000
       33 FE2    4d2-       0.0000   -0.0000   -0.0000    0.0000   -0.0000    0.0276    0.1236    0.0000   -0.0000   -0.0000
       34 FE2    3d1-      -0.0000    0.0001    0.0000   -0.0000   -0.0000    0.0000    0.0000   -0.3052    0.9439    0.0000
       35 FE2    4d1-       0.0000   -0.0001   -0.0000   -0.0000   -0.0000    0.0000    0.0000   -0.0389    0.1204    0.0000
       36 FE2    3d0       -0.0000    0.0000    0.0000   -0.0040   -0.0916   -0.0000    0.0000   -0.0000   -0.0000    0.9878
       37 FE2    4d0       -0.0002   -0.0000   -0.0000   -0.0014   -0.0121   -0.0000    0.0000   -0.0000   -0.0000    0.1259
       38 FE2    3d1+      -0.0000   -0.0000    0.0001   -0.0000    0.0000   -0.0000   -0.0000    0.9439    0.3052    0.0000
       39 FE2    4d1+       0.0000    0.0000   -0.0001   -0.0000    0.0000   -0.0000   -0.0000    0.1204    0.0389    0.0000
       40 FE2    3d2+      -0.0000    0.0000    0.0000    0.0000   -0.0000    0.9682   -0.2160    0.0000   -0.0000    0.0000
       41 FE2    4d2+       0.0000    0.0000   -0.0000   -0.0000   -0.0000    0.1236   -0.0276    0.0000   -0.0000    0.0000
       42 FE2    4f3-      -0.0000   -0.0000   -0.0000    0.0000   -0.0000    0.0000    0.0000    0.0000   -0.0000   -0.0000
       43 FE2    4f2-      -0.0000    0.0000    0.0000    0.0000   -0.0000    0.0000    0.0000    0.0000   -0.0000   -0.0000
       44 FE2    4f1-      -0.0000    0.0000    0.0000   -0.0000   -0.0000    0.0000    0.0000   -0.0000    0.0000    0.0000
       45 FE2    4f0        0.0000    0.0000   -0.0000   -0.0001   -0.0000   -0.0000    0.0000   -0.0000   -0.0000    0.0000
       46 FE2    4f1+      -0.0000   -0.0000    0.0000   -0.0000    0.0000   -0.0000   -0.0000    0.0000    0.0000   -0.0000
       47 FE2    4f2+      -0.0000   -0.0000    0.0000   -0.0000   -0.0000    0.0000   -0.0000    0.0000   -0.0000    0.0000
       48 FE2    4f3+      -0.0000    0.0000   -0.0000    0.0000   -0.0000   -0.0000   -0.0000    0.0000    0.0000   -0.0000
 
          Orbital           21        22        23        24    
          Energy           -0.3915   -0.3915   -0.3905   -0.2255
          Occ. No.          0.0000    0.0000    0.0000    0.0000
 
        1 O1     1s         0.0000    0.0000   -0.0018   -0.0049
        2 O1     2s         0.0000    0.0000   -0.0226   -0.0545
        3 O1     3s         0.0000    0.0000   -0.0050   -0.0085
        4 O1     2px        0.0052   -0.0003    0.0000    0.0000
        5 O1     3px        0.0012   -0.0001    0.0000    0.0000
        6 O1     2py       -0.0003   -0.0052   -0.0000   -0.0000
        7 O1     3py       -0.0001   -0.0012   -0.0000   -0.0000
        8 O1     2pz       -0.0000   -0.0000    0.0374    0.0515
        9 O1     3pz       -0.0000   -0.0000    0.0031    0.0086
       10 O1     3d2-       0.0000   -0.0000   -0.0000   -0.0000
       11 O1     3d1-      -0.0000   -0.0002    0.0000   -0.0000
       12 O1     3d0       -0.0000   -0.0000    0.0007    0.0010
       13 O1     3d1+       0.0002   -0.0000    0.0000    0.0000
       14 O1     3d2+       0.0000    0.0000   -0.0000    0.0000
       15 FE2    1s        -0.0000    0.0000    0.0000    0.0000
       16 FE2    2s        -0.0000   -0.0000    0.0000    0.0002
       17 FE2    3s         0.0000    0.0000    0.0001   -0.0023
       18 FE2    4s        -0.0000    0.0000    0.0011    0.2500
       19 FE2    5s        -0.0000   -0.0000   -0.0044    0.9737
       20 FE2    2px        0.0003   -0.0000   -0.0000   -0.0000
       21 FE2    3px       -0.0110    0.0006   -0.0000   -0.0000
       22 FE2    4px       -0.9960    0.0532   -0.0000   -0.0000
       23 FE2    5px       -0.0721    0.0038   -0.0000   -0.0000
       24 FE2    2py       -0.0000   -0.0003   -0.0000   -0.0000
       25 FE2    3py        0.0006    0.0110    0.0000    0.0000
       26 FE2    4py        0.0532    0.9960    0.0000    0.0000
       27 FE2    5py        0.0038    0.0721    0.0000    0.0000
       28 FE2    2pz        0.0000    0.0000   -0.0003   -0.0000
       29 FE2    3pz       -0.0000   -0.0000    0.0111    0.0002
       30 FE2    4pz       -0.0000   -0.0000    0.9989    0.0099
       31 FE2    5pz       -0.0000   -0.0000    0.0720    0.0001
       32 FE2    3d2-      -0.0000   -0.0000   -0.0000   -0.0000
       33 FE2    4d2-      -0.0000   -0.0000   -0.0000    0.0000
       34 FE2    3d1-      -0.0000   -0.0001   -0.0000    0.0000
       35 FE2    4d1-      -0.0000   -0.0000   -0.0000    0.0000
       36 FE2    3d0       -0.0000   -0.0000    0.0012    0.0011
       37 FE2    4d0       -0.0000    0.0000   -0.0006   -0.0014
       38 FE2    3d1+       0.0001   -0.0000   -0.0000   -0.0000
       39 FE2    4d1+       0.0000   -0.0000    0.0000    0.0000
       40 FE2    3d2+       0.0000   -0.0000    0.0000    0.0000
       41 FE2    4d2+      -0.0000    0.0000   -0.0000   -0.0000
       42 FE2    4f3-       0.0000    0.0000   -0.0000   -0.0000
       43 FE2    4f2-      -0.0000   -0.0000   -0.0000    0.0000
       44 FE2    4f1-      -0.0000   -0.0000   -0.0000    0.0000
       45 FE2    4f0        0.0000    0.0000   -0.0000   -0.0000
       46 FE2    4f1+       0.0000   -0.0000    0.0000   -0.0000
       47 FE2    4f2+      -0.0000   -0.0000    0.0000   -0.0000
       48 FE2    4f3+      -0.0000   -0.0000    0.0000   -0.0000
--
 
 
++    Molecular charges:
      ------------------
 
      Mulliken charges per centre and basis function type
      ---------------------------------------------------
 
                            O1                      FE2   
                     alpha        beta       alpha        beta
      1s           1.0000      1.0000      1.0000      1.0000
      2s           0.9986      0.9988      1.0000      1.0000
      2px          0.0000      0.9976      1.0000      1.0000
      2pz          0.9952      0.9994      1.0000      1.0000
      2py          0.0000      0.9976      1.0000      1.0000
      3s           0.0007      0.0010      1.0000      1.0000
      3px          0.0000      0.0023      0.9993      0.9998
      3pz          0.0031      0.0001      0.9993      0.9998
      3py          0.0000      0.0023      0.9993      0.9998
      4s           0.0000      0.0000      0.8617      0.0002
      3d2+        -0.0000      0.0000      0.9814      0.0000
      3d1+        -0.0000      0.0000      0.9814      0.0000
      3d0          0.0009      0.0005      0.9814      0.0000
      3d1-        -0.0000      0.0000      0.9814      0.0000
      3d2-        -0.0000      0.0000      0.9814      0.0000
      4px          0.0000      0.0000      0.0004      0.0001
      4pz          0.0000      0.0000      0.0018      0.0003
      4py          0.0000      0.0000      0.0004      0.0001
      5s           0.0000      0.0000      0.1381     -0.0001
      4d2+         0.0000      0.0000      0.0186      0.0000
      4d1+         0.0000      0.0000      0.0186     -0.0000
      4d0          0.0000      0.0000      0.0187      0.0000
      4d1-         0.0000      0.0000      0.0186     -0.0000
      4d2-         0.0000      0.0000      0.0186      0.0000
      5px          0.0000      0.0000      0.0003      0.0000
      5pz          0.0000      0.0000      0.0004      0.0000
      5py          0.0000      0.0000      0.0003      0.0000
      4f3+         0.0000      0.0000      0.0000      0.0000
      4f2+         0.0000      0.0000      0.0000      0.0000
      4f1+         0.0000      0.0000      0.0000      0.0000
      4f0          0.0000      0.0000      0.0000      0.0000
      4f1-         0.0000      0.0000      0.0000      0.0000
      4f2-         0.0000      0.0000      0.0000      0.0000
      4f3-         0.0000      0.0000      0.0000      0.0000
      Total        2.9986      4.9998     15.0014      9.0002
      Total              7.9984                 24.0016
 
      Charge            0.0016                  1.9984
 
      Total electronic charge=   32.000000
 
      Total            charge=    2.000000
--
 
 
  Input file to MOLDEN was generated!
 
 
++    Static properties:
      ------------------
 
 
      LoProp Charges per center
 

                   O1       FE2   
      Nuclear      8.0000  26.0000
      Electronic  -7.9993 -24.0007
 
      Total        0.0007   1.9993
--
 
 
++    Natural Bond Order analysis
      ---------------------------
      Based on LoProp computed density
      -------------------------------------------------------------------------------------
      Atom A       Atom B       Bond Order
      -------------------------------------------------------------------------------------
      NBO located     20.000 core electrons.
      NBO located      3.994 lone pair electrons.
      NBO located      1.000 non-bonded electrons on atom O1        
      NBO located      1.000 non-bonded electrons on atom O1        
      NBO located      1.000 non-bonded electrons on atom FE2       
      NBO located      1.000 non-bonded electrons on atom FE2       
      NBO located      1.000 non-bonded electrons on atom FE2       
      NBO located      1.000 non-bonded electrons on atom FE2       
      NBO located      1.000 non-bonded electrons on atom FE2       
      NBO located      1.000 non-bonded electrons on atom FE2       
      The remaining    0.007 electrons are to be considered as diffuse
--
 
 
++    Molecular orbitals:
      -------------------
 
      Title: Natural orbitals

      Molecular orbitals for symmetry species 1: a  
 
          Orbital            1         2         3         4         5         6         7         8         9        10    
          Energy         -264.6122  -33.0536  -27.5881  -27.7110  -27.7101  -20.9376   -5.6076   -4.4681   -4.4610   -4.4610
          Occ. No.          2.0000    2.0000    2.0000    2.0000    2.0000    2.0000    2.0000    1.9999    1.9999    1.9999
 
        1 O1     1s         0.0000    0.0063    0.1285    0.0000    0.0000    0.9895    0.0568   -0.0024    0.0000   -0.0000
        2 O1     2s        -0.0000   -0.0001   -0.0041   -0.0000   -0.0000   -0.0333   -0.0007   -0.0029   -0.0000    0.0000
        3 O1     3s        -0.0000    0.0000   -0.0001   -0.0000   -0.0000   -0.0005    0.0003    0.0004    0.0000   -0.0000
        4 O1     2px       -0.0000    0.0000    0.0000   -0.0000   -0.0000    0.0000   -0.0000   -0.0000   -0.0000    0.0000
        5 O1     3px        0.0000    0.0000   -0.0000   -0.0000   -0.0000    0.0000   -0.0000   -0.0000    0.0000   -0.0000
        6 O1     2py        0.0000   -0.0000   -0.0000   -0.0000    0.0000    0.0000    0.0000    0.0000   -0.0000   -0.0000
        7 O1     3py        0.0000    0.0000    0.0000   -0.0000    0.0000   -0.0000    0.0000    0.0000    0.0000    0.0000
        8 O1     2pz        0.0000   -0.0000    0.0017   -0.0000   -0.0000   -0.0012   -0.0048   -0.0339   -0.0000    0.0000
        9 O1     3pz        0.0000   -0.0000    0.0001    0.0000    0.0000    0.0002   -0.0004   -0.0008   -0.0000    0.0000
       10 O1     3d2-      -0.0000    0.0000   -0.0000   -0.0000    0.0000    0.0000    0.0000    0.0000   -0.0000    0.0000
       11 O1     3d1-       0.0000    0.0000   -0.0000    0.0000   -0.0000   -0.0000    0.0000   -0.0000    0.0000    0.0000
       12 O1     3d0        0.0000    0.0000    0.0000    0.0000    0.0000    0.0002    0.0001    0.0002    0.0000   -0.0000
       13 O1     3d1+      -0.0000   -0.0000    0.0000    0.0000    0.0000    0.0000   -0.0000   -0.0000    0.0000   -0.0000
       14 O1     3d2+      -0.0000    0.0000   -0.0000    0.0000    0.0000   -0.0000    0.0000    0.0000   -0.0000   -0.0000
       15 FE2    1s         1.0000   -0.0000    0.0000   -0.0000    0.0000    0.0000   -0.0000    0.0000    0.0000   -0.0000
       16 FE2    2s         0.0000    0.9939    0.0021   -0.0000   -0.0000   -0.0002   -0.1106    0.0007    0.0000   -0.0000
       17 FE2    3s        -0.0000   -0.1104    0.0074    0.0000    0.0000    0.0567   -0.9922    0.0042    0.0000   -0.0000
       18 FE2    4s         0.0000    0.0005   -0.0000   -0.0000   -0.0000   -0.0001    0.0022    0.0001    0.0000   -0.0000
       19 FE2    5s        -0.0000   -0.0006    0.0000    0.0000    0.0000    0.0003   -0.0045   -0.0000   -0.0000   -0.0000
       20 FE2    2px       -0.0000    0.0000    0.0000    0.0817    0.9811   -0.0000   -0.0000   -0.0000    0.1349   -0.1118
       21 FE2    3px        0.0000   -0.0000   -0.0000   -0.0145   -0.1745    0.0000    0.0000   -0.0000    0.7579   -0.6281
       22 FE2    4px       -0.0000    0.0000    0.0000    0.0002    0.0026   -0.0000   -0.0000    0.0000   -0.0116    0.0096
       23 FE2    5px        0.0000   -0.0000   -0.0000   -0.0002   -0.0019    0.0000    0.0000   -0.0000    0.0090   -0.0075
       24 FE2    2py        0.0000    0.0000   -0.0000    0.9812   -0.0817    0.0000    0.0000   -0.0000    0.1117    0.1348
       25 FE2    3py       -0.0000   -0.0000    0.0000   -0.1744    0.0145   -0.0000   -0.0000   -0.0000    0.6281    0.7580
       26 FE2    4py        0.0000    0.0000   -0.0000    0.0026   -0.0002    0.0000    0.0000    0.0000   -0.0096   -0.0116
       27 FE2    5py       -0.0000   -0.0000    0.0000   -0.0019    0.0002   -0.0000   -0.0000   -0.0000    0.0075    0.0090
       28 FE2    2pz       -0.0000   -0.0021    0.9762   -0.0000   -0.0000   -0.1264    0.0010    0.1763    0.0000   -0.0000
       29 FE2    3pz       -0.0000    0.0002   -0.1746    0.0000    0.0000    0.0247    0.0041    0.9835    0.0000   -0.0000
       30 FE2    4pz        0.0000   -0.0000    0.0026   -0.0000   -0.0000   -0.0003   -0.0001   -0.0146   -0.0000    0.0000
       31 FE2    5pz       -0.0000   -0.0000   -0.0019    0.0000    0.0000    0.0003    0.0000    0.0117    0.0000   -0.0000
       32 FE2    3d2-      -0.0000    0.0000    0.0000    0.0000    0.0000    0.0000    0.0000   -0.0000    0.0000   -0.0000
       33 FE2    4d2-       0.0000   -0.0000   -0.0000   -0.0000    0.0000    0.0000   -0.0000    0.0000    0.0000    0.0000
       34 FE2    3d1-      -0.0000    0.0000    0.0000   -0.0000    0.0000   -0.0000    0.0000    0.0000    0.0000    0.0001
       35 FE2    4d1-      -0.0000   -0.0000   -0.0000    0.0000   -0.0000    0.0000   -0.0000    0.0000   -0.0000   -0.0000
       36 FE2    3d0        0.0000    0.0000   -0.0000    0.0000    0.0000    0.0000    0.0000    0.0002    0.0000   -0.0000
       37 FE2    4d0        0.0000   -0.0000    0.0000    0.0000    0.0000    0.0000   -0.0000    0.0000    0.0000   -0.0000
       38 FE2    3d1+       0.0000   -0.0000   -0.0000   -0.0000   -0.0000    0.0000   -0.0000   -0.0000    0.0001   -0.0000
       39 FE2    4d1+      -0.0000    0.0000    0.0000    0.0000    0.0000   -0.0000    0.0000    0.0000   -0.0000    0.0000
       40 FE2    3d2+       0.0000   -0.0000   -0.0000    0.0000   -0.0000    0.0000   -0.0000    0.0000    0.0000   -0.0000
       41 FE2    4d2+      -0.0000    0.0000    0.0000   -0.0000    0.0000   -0.0000    0.0000   -0.0000   -0.0000    0.0000
       42 FE2    4f3-      -0.0000    0.0000   -0.0000    0.0000   -0.0000    0.0000    0.0000    0.0000   -0.0000   -0.0000
       43 FE2    4f2-       0.0000   -0.0000    0.0000   -0.0000    0.0000   -0.0000   -0.0000   -0.0000   -0.0000   -0.0000
       44 FE2    4f1-       0.0000   -0.0000   -0.0000    0.0000   -0.0000    0.0000    0.0000    0.0000   -0.0000   -0.0000
       45 FE2    4f0        0.0000   -0.0000    0.0000   -0.0000   -0.0000   -0.0000    0.0000   -0.0000   -0.0000    0.0000
       46 FE2    4f1+      -0.0000   -0.0000    0.0000    0.0000    0.0000   -0.0000    0.0000    0.0000   -0.0000    0.0000
       47 FE2    4f2+       0.0000   -0.0000   -0.0000    0.0000    0.0000    0.0000    0.0000    0.0000   -0.0000   -0.0000
       48 FE2    4f3+      -0.0000    0.0000    0.0000   -0.0000   -0.0000   -0.0000   -0.0000    0.0000    0.0000   -0.0000
 
          Orbital           11        12        13        14        15        16        17        18        19        20    
          Energy           -0.8576   -1.4235   -0.7857   -0.7857   -1.0831   -1.0832   -1.0832   -0.7586   -0.7855   -0.7855
          Occ. No.          1.9979    1.9974    1.0002    1.0002    1.0000    1.0000    1.0000    1.0000    0.9998    0.9998
 
        1 O1     1s        -0.0120    0.0314   -0.0000   -0.0000   -0.0001   -0.0000    0.0000    0.0007   -0.0000   -0.0000
        2 O1     2s        -0.3230    0.9459   -0.0000   -0.0000   -0.0007   -0.0000    0.0000    0.0063   -0.0000   -0.0000
        3 O1     3s         0.0121    0.0006   -0.0000   -0.0000   -0.0007   -0.0000    0.0000    0.0063   -0.0000   -0.0000
        4 O1     2px       -0.0000   -0.0000    0.0862    0.7011   -0.0000   -0.0000   -0.0000    0.0000    0.1154   -0.6967
        5 O1     3px       -0.0000   -0.0000   -0.0041   -0.0335   -0.0000    0.0000    0.0000    0.0000   -0.0056    0.0341
        6 O1     2py        0.0000    0.0000    0.7011   -0.0862    0.0000   -0.0000    0.0000   -0.0000   -0.6967   -0.1154
        7 O1     3py        0.0000    0.0000   -0.0335    0.0041    0.0000    0.0000   -0.0000    0.0000    0.0341    0.0056
        8 O1     2pz       -0.9448   -0.3223    0.0000   -0.0000   -0.0037   -0.0000    0.0000    0.0100   -0.0000   -0.0000
        9 O1     3pz       -0.0186   -0.0114    0.0000    0.0000    0.0007    0.0000   -0.0000   -0.0046    0.0000    0.0000
       10 O1     3d2-      -0.0000   -0.0000    0.0000    0.0000    0.0000    0.0000    0.0000   -0.0000   -0.0000   -0.0000
       11 O1     3d1-      -0.0000   -0.0000   -0.0038    0.0005   -0.0000    0.0000   -0.0000   -0.0000    0.0037    0.0006
       12 O1     3d0        0.0049    0.0062   -0.0000   -0.0000   -0.0001   -0.0000    0.0000    0.0001    0.0000   -0.0000
       13 O1     3d1+       0.0000    0.0000   -0.0005   -0.0038    0.0000    0.0000    0.0000   -0.0000   -0.0006    0.0037
       14 O1     3d2+      -0.0000   -0.0000   -0.0000    0.0000   -0.0000    0.0000   -0.0000    0.0000    0.0000    0.0000
       15 FE2    1s        -0.0000   -0.0000    0.0000    0.0000    0.0000    0.0000   -0.0000   -0.0000    0.0000    0.0000
       16 FE2    2s         0.0003    0.0002    0.0000    0.0000    0.0000    0.0000   -0.0000   -0.0003    0.0000    0.0000
       17 FE2    3s         0.0031    0.0020   -0.0000   -0.0000   -0.0000   -0.0000    0.0000    0.0038   -0.0000   -0.0000
       18 FE2    4s         0.0049    0.0010   -0.0000   -0.0000    0.0002   -0.0000    0.0000    0.9279   -0.0000   -0.0000
       19 FE2    5s         0.0001   -0.0007    0.0000    0.0000    0.0003    0.0000   -0.0000   -0.3721    0.0000    0.0000
       20 FE2    2px       -0.0000   -0.0000   -0.0000   -0.0000    0.0000    0.0000   -0.0000   -0.0000    0.0000   -0.0000
       21 FE2    3px        0.0000   -0.0000   -0.0000   -0.0001    0.0000    0.0000    0.0000   -0.0000    0.0000   -0.0000
       22 FE2    4px        0.0000    0.0000   -0.0000   -0.0004    0.0000    0.0000   -0.0000   -0.0000   -0.0000    0.0002
       23 FE2    5px       -0.0000   -0.0000   -0.0000   -0.0001    0.0000    0.0000   -0.0000   -0.0000   -0.0000    0.0001
       24 FE2    2py       -0.0000    0.0000   -0.0000    0.0000    0.0000   -0.0000    0.0000   -0.0000   -0.0000   -0.0000
       25 FE2    3py       -0.0000    0.0000   -0.0001    0.0000   -0.0000    0.0000   -0.0000   -0.0000   -0.0000   -0.0000
       26 FE2    4py        0.0000    0.0000   -0.0004    0.0000   -0.0000    0.0000   -0.0000   -0.0000    0.0002    0.0000
       27 FE2    5py       -0.0000    0.0000   -0.0001    0.0000   -0.0000    0.0000   -0.0000   -0.0000    0.0001    0.0000
       28 FE2    2pz       -0.0041   -0.0011   -0.0000    0.0000    0.0000   -0.0000    0.0000    0.0000    0.0000   -0.0000
       29 FE2    3pz       -0.0332   -0.0083    0.0000    0.0000    0.0001    0.0000   -0.0000   -0.0001   -0.0000    0.0000
       30 FE2    4pz        0.0133    0.0041    0.0000    0.0000    0.0006    0.0000   -0.0000   -0.0070    0.0000    0.0000
       31 FE2    5pz        0.0004   -0.0001    0.0000    0.0000    0.0001    0.0000   -0.0000   -0.0005    0.0000    0.0000
       32 FE2    3d2-      -0.0000   -0.0000    0.0000    0.0000   -0.0000    0.8480    0.5122   -0.0000    0.0000    0.0000
       33 FE2    4d2-       0.0000    0.0000   -0.0000   -0.0000    0.0000   -0.1167   -0.0705    0.0000   -0.0000   -0.0000
       34 FE2    3d1-       0.0000    0.0000    0.6953   -0.0854    0.0000   -0.0000    0.0000    0.0000    0.6911    0.1145
       35 FE2    4d1-       0.0000    0.0000   -0.0958    0.0118   -0.0000    0.0000   -0.0000   -0.0000   -0.0951   -0.0158
       36 FE2    3d0        0.0038    0.0012    0.0000   -0.0000   -0.9906   -0.0000   -0.0000   -0.0001    0.0000    0.0000
       37 FE2    4d0        0.0020    0.0006   -0.0000    0.0000    0.1365    0.0000   -0.0000   -0.0010   -0.0000   -0.0000
       38 FE2    3d1+       0.0000    0.0000    0.0854    0.6953   -0.0000   -0.0000    0.0000    0.0000   -0.1145    0.6911
       39 FE2    4d1+       0.0000    0.0000   -0.0118   -0.0958    0.0000    0.0000   -0.0000   -0.0000    0.0158   -0.0951
       40 FE2    3d2+      -0.0000   -0.0000    0.0000    0.0000    0.0000    0.5122   -0.8480    0.0000    0.0000    0.0000
       41 FE2    4d2+       0.0000    0.0000   -0.0000   -0.0000   -0.0000   -0.0705    0.1167   -0.0000   -0.0000   -0.0000
       42 FE2    4f3-      -0.0000   -0.0000   -0.0000    0.0000    0.0000    0.0000   -0.0000   -0.0000    0.0000    0.0000
       43 FE2    4f2-      -0.0000   -0.0000    0.0000    0.0000   -0.0000    0.0000    0.0000   -0.0000   -0.0000    0.0000
       44 FE2    4f1-       0.0000   -0.0000    0.0000   -0.0000    0.0000   -0.0000    0.0000    0.0000    0.0000    0.0000
       45 FE2    4f0        0.0001    0.0000    0.0000    0.0000   -0.0000    0.0000   -0.0000   -0.0000    0.0000    0.0000
       46 FE2    4f1+       0.0000   -0.0000    0.0000    0.0000   -0.0000   -0.0000   -0.0000    0.0000   -0.0000    0.0000
       47 FE2    4f2+       0.0000   -0.0000    0.0000    0.0000    0.0000    0.0000   -0.0000    0.0000    0.0000    0.0000
       48 FE2    4f3+      -0.0000   -0.0000    0.0000   -0.0000    0.0000   -0.0000   -0.0000   -0.0000   -0.0000    0.0000
 
          Orbital           21        22        23        24        25        26        27        28        29        30    
          Energy            1.1472    0.3810    0.9478    0.9478    1.0016   -0.2067    0.8660   -0.0390   -0.0390    0.5170
          Occ. No.          0.0026    0.0021    0.0001    0.0001    0.0001    0.0000    0.0000    0.0000    0.0000    0.0000
 
        1 O1     1s        -0.0001    0.0006    0.0000    0.0000   -0.0018    0.0050    0.0025   -0.0000    0.0000    0.0020
        2 O1     2s        -0.0055    0.0118    0.0000    0.0000   -0.0209    0.0580    0.0293   -0.0000    0.0000    0.0255
        3 O1     3s         0.6691    0.2290    0.0000    0.0000   -0.0335    0.1225    0.6091   -0.0000   -0.0000   -0.3650
        4 O1     2px        0.0000   -0.0000   -0.0041    0.0001   -0.0000   -0.0000   -0.0000   -0.0103   -0.0017   -0.0000
        5 O1     3px       -0.0000    0.0000   -0.0140    0.0004   -0.0000   -0.0000   -0.0000   -0.0577   -0.0098    0.0000
        6 O1     2py       -0.0000    0.0000   -0.0001   -0.0041    0.0000    0.0000    0.0000    0.0017   -0.0103    0.0000
        7 O1     3py        0.0000   -0.0000   -0.0004   -0.0140    0.0000    0.0000    0.0000    0.0098   -0.0577    0.0000
        8 O1     2pz        0.0261   -0.0309   -0.0000   -0.0000    0.0120   -0.0541   -0.0324    0.0000   -0.0000   -0.0414
        9 O1     3pz       -0.2975    0.8622   -0.0000   -0.0000   -0.1031   -0.2016   -0.2498    0.0000    0.0000   -0.3545
       10 O1     3d2-      -0.0000   -0.0000    0.0000   -0.0000   -0.0000   -0.0000   -0.0000   -0.0000   -0.0000   -0.0000
       11 O1     3d1-      -0.0000   -0.0000    0.0000    0.0012    0.0000   -0.0000    0.0000   -0.0014    0.0082   -0.0000
       12 O1     3d0        0.6571    0.2572   -0.0000    0.0000   -0.0129    0.0148   -0.5438    0.0000    0.0000    0.4433
       13 O1     3d1+       0.0000    0.0000    0.0012   -0.0000   -0.0000    0.0000   -0.0000    0.0082    0.0014    0.0000
       14 O1     3d2+       0.0000    0.0000    0.0000    0.0000   -0.0000    0.0000    0.0000    0.0000    0.0000    0.0000
       15 FE2    1s        -0.0001    0.0002    0.0000    0.0000   -0.0000   -0.0000   -0.0001    0.0000    0.0000   -0.0001
       16 FE2    2s        -0.0005    0.0013   -0.0000    0.0000   -0.0001   -0.0003   -0.0004    0.0000    0.0000   -0.0005
       17 FE2    3s        -0.0027    0.0068    0.0000   -0.0000   -0.0008    0.0017   -0.0022    0.0000    0.0000   -0.0026
       18 FE2    4s        -0.0113    0.0318   -0.0000   -0.0000   -0.0024   -0.3908   -0.0260    0.0000    0.0000   -0.0376
       19 FE2    5s         0.0250   -0.0404   -0.0000   -0.0000    0.0180   -0.9482   -0.0191    0.0000    0.0000   -0.0312
       20 FE2    2px       -0.0000    0.0000   -0.0002    0.0000   -0.0000    0.0000    0.0000   -0.0000   -0.0000    0.0000
       21 FE2    3px        0.0000   -0.0000   -0.0180    0.0006   -0.0000    0.0000    0.0000    0.0069    0.0012   -0.0000
       22 FE2    4px        0.0000   -0.0000   -0.5155    0.0161   -0.0000    0.0000    0.0000    0.8453    0.1429    0.0000
       23 FE2    5px       -0.0000    0.0000    0.8563   -0.0267    0.0000    0.0000    0.0000    0.5100    0.0862    0.0000
       24 FE2    2py       -0.0000    0.0000   -0.0000   -0.0002   -0.0000   -0.0000   -0.0000    0.0000   -0.0000   -0.0000
       25 FE2    3py       -0.0000   -0.0000   -0.0006   -0.0180   -0.0000   -0.0000   -0.0000   -0.0012    0.0069   -0.0000
       26 FE2    4py        0.0000   -0.0000   -0.0161   -0.5155   -0.0000    0.0000   -0.0000   -0.1429    0.8453   -0.0000
       27 FE2    5py        0.0000    0.0000    0.0267    0.8563    0.0000    0.0000   -0.0000   -0.0862    0.5100   -0.0000
       28 FE2    2pz       -0.0001    0.0002    0.0000    0.0000   -0.0002   -0.0001   -0.0000    0.0000    0.0000   -0.0001
       29 FE2    3pz       -0.0003   -0.0001    0.0000    0.0000   -0.0181   -0.0010   -0.0057    0.0000   -0.0000   -0.0071
       30 FE2    4pz        0.0923   -0.2721    0.0000    0.0000   -0.4725    0.0069   -0.5240    0.0000   -0.0000   -0.6669
       31 FE2    5pz        0.0055   -0.0026   -0.0000   -0.0000    0.8716    0.0048   -0.3189    0.0000   -0.0000   -0.4002
       32 FE2    3d2-       0.0000   -0.0000   -0.0000   -0.0000   -0.0000    0.0000    0.0000   -0.0000    0.0000    0.0000
       33 FE2    4d2-       0.0000   -0.0000   -0.0000   -0.0000   -0.0000    0.0000    0.0000   -0.0000    0.0000    0.0000
       34 FE2    3d1-       0.0000    0.0000   -0.0000   -0.0001   -0.0000   -0.0000   -0.0000   -0.0002    0.0014   -0.0000
       35 FE2    4d1-       0.0000   -0.0000   -0.0000   -0.0005    0.0000   -0.0000   -0.0000   -0.0015    0.0087   -0.0000
       36 FE2    3d0       -0.0001    0.0014   -0.0000    0.0000    0.0001   -0.0030   -0.0168    0.0000   -0.0000    0.0054
       37 FE2    4d0        0.0112   -0.0165   -0.0000   -0.0000    0.0054   -0.0142   -0.1110    0.0000   -0.0000    0.0518
       38 FE2    3d1+      -0.0000   -0.0000   -0.0001    0.0000    0.0000    0.0000    0.0000    0.0014    0.0002   -0.0000
       39 FE2    4d1+      -0.0000    0.0000   -0.0005    0.0000    0.0000   -0.0000    0.0000    0.0087    0.0015   -0.0000
       40 FE2    3d2+       0.0000   -0.0000    0.0000    0.0000    0.0000   -0.0000   -0.0000    0.0000   -0.0000   -0.0000
       41 FE2    4d2+       0.0000   -0.0000    0.0000    0.0000    0.0000   -0.0000   -0.0000    0.0000   -0.0000   -0.0000
       42 FE2    4f3-      -0.0000    0.0000    0.0000   -0.0000    0.0000   -0.0000   -0.0000   -0.0000   -0.0000   -0.0000
       43 FE2    4f2-      -0.0000    0.0000    0.0000    0.0000    0.0000    0.0000    0.0000    0.0000    0.0000    0.0000
       44 FE2    4f1-       0.0000   -0.0000   -0.0000   -0.0001    0.0000   -0.0000   -0.0000   -0.0001    0.0007   -0.0000
       45 FE2    4f0        0.0004   -0.0007    0.0000   -0.0000    0.0002   -0.0008   -0.0055   -0.0000    0.0000    0.0016
       46 FE2    4f1+      -0.0000   -0.0000   -0.0001    0.0000    0.0000   -0.0000   -0.0000    0.0007    0.0001   -0.0000
       47 FE2    4f2+       0.0000   -0.0000   -0.0000    0.0000   -0.0000    0.0000   -0.0000    0.0000    0.0000   -0.0000
       48 FE2    4f3+      -0.0000    0.0000   -0.0000   -0.0000    0.0000   -0.0000   -0.0000    0.0000    0.0000   -0.0000
 
          Orbital           31        32        33        34        35        36        37        38        39        40    
          Energy            0.2983    0.3616    0.2653    0.3708    0.2745    0.2696    0.2700    3.1062    1.8943    2.0996
          Occ. No.          0.0000    0.0000    0.0000    0.0000    0.0000    0.0000    0.0000    0.0000    0.0000    0.0000
 
        1 O1     1s         0.0010    0.0000    0.0000    0.0000   -0.0000    0.0000   -0.0000   -0.0000    0.0000   -0.0000
        2 O1     2s         0.0149    0.0000    0.0000    0.0000   -0.0000    0.0000   -0.0000    0.0002    0.0000   -0.0000
        3 O1     3s        -0.0444   -0.0000   -0.0000   -0.0000    0.0000   -0.0000    0.0000   -0.0014   -0.0000    0.0000
        4 O1     2px       -0.0000    0.0476   -0.0013    0.0021   -0.0099    0.0001    0.0001   -0.0000    0.0064    0.0009
        5 O1     3px       -0.0000    0.9939   -0.0166    0.0442   -0.0855    0.0012    0.0006   -0.0000    0.0268    0.0045
        6 O1     2py       -0.0000   -0.0021    0.0028    0.0485   -0.0004   -0.0000   -0.0000   -0.0000    0.0009   -0.0058
        7 O1     3py       -0.0000   -0.0422    0.1761    0.9819   -0.0193   -0.0011   -0.0008   -0.0000   -0.0018   -0.0251
        8 O1     2pz       -0.0270   -0.0000   -0.0000   -0.0000    0.0000   -0.0000    0.0000   -0.0009   -0.0000    0.0000
        9 O1     3pz       -0.1006   -0.0000   -0.0000   -0.0000    0.0000   -0.0000    0.0000   -0.0039   -0.0000    0.0000
       10 O1     3d2-      -0.0000    0.0008    0.0003   -0.0001    0.0024   -0.0048   -0.0073   -0.0000   -0.2324   -0.0354
       11 O1     3d1-       0.0000    0.0026   -0.0022   -0.0286   -0.0020    0.0024    0.0027    0.0000    0.1861   -0.8503
       12 O1     3d0        0.0994    0.0000    0.0000    0.0000   -0.0000    0.0000   -0.0000    0.0031   -0.0000   -0.0000
       13 O1     3d1+      -0.0000   -0.0280    0.0037    0.0060    0.0132    0.0060    0.0088   -0.0000    0.9492    0.1273
       14 O1     3d2+       0.0000   -0.0011    0.0001    0.0001    0.0015   -0.0035    0.0056    0.0000   -0.0970   -0.2992
       15 FE2    1s        -0.0000   -0.0000   -0.0000   -0.0000    0.0000   -0.0000    0.0000   -0.0000   -0.0000    0.0000
       16 FE2    2s        -0.0001   -0.0000   -0.0000   -0.0000    0.0000   -0.0000    0.0000   -0.0000   -0.0000    0.0000
       17 FE2    3s        -0.0008   -0.0000   -0.0000   -0.0000    0.0000   -0.0000    0.0000   -0.0000   -0.0000    0.0000
       18 FE2    4s        -0.0084   -0.0000   -0.0000   -0.0000    0.0000   -0.0000    0.0000   -0.0003    0.0000    0.0000
       19 FE2    5s        -0.0050   -0.0000   -0.0000   -0.0000    0.0000   -0.0000    0.0000   -0.0002    0.0000    0.0000
       20 FE2    2px        0.0000   -0.0000    0.0000   -0.0000    0.0000   -0.0000   -0.0000    0.0000   -0.0000   -0.0000
       21 FE2    3px        0.0000   -0.0007    0.0000   -0.0000   -0.0000   -0.0000   -0.0000    0.0000   -0.0000   -0.0000
[...]
 Report on small energy denominators, large coefficients, and large energy contributions.
CASE  SYMM ACTIVE-MIX  NON-ACTIVE INDICES          DENOMINATOR     RHS VALUE       COEFFICIENT     CONTRIBUTION
VJTU     1  Mu1.0001  In1.011                       0.25742470     -0.00000000      0.00000000     -0.00000000
VJTU     1  Mu1.0002  In1.011                       0.25742812      0.00000000     -0.00000000     -0.00000000
VJTU     1  Mu1.0003  In1.011                       0.25888639     -0.00000062      0.00000032     -0.00000000
VJTU     1  Mu1.0004  In1.011                       0.25889113      0.00000160     -0.00000083     -0.00000000
VJTU     1  Mu1.0005  In1.011                       0.27372429     -0.00000000      0.00000000     -0.00000000
VJTU     1  Mu1.0006  In1.011                       0.27372430     -0.00000000      0.00000000     -0.00000000
VJTU     1  Mu1.0007  In1.011                       0.29654316      0.00000000     -0.00000000     -0.00000000
VJTU     1  Mu1.0008  In1.011                       0.29654316      0.00000000     -0.00000000     -0.00000000
ATVX     1  Mu1.0001  Se1.026                      -0.25450013     -0.00000000     -0.00000000      0.00000000
ATVX     1  Mu1.0002  Se1.026                      -0.23945246     -0.00000000      0.00000000     -0.00000000
ATVX     1  Mu1.0003  Se1.026                      -0.23944921     -0.00000000     -0.00000000      0.00000000
ATVX     1  Mu1.0004  Se1.026                      -0.20002511      0.00000000      0.00000000      0.00000000
ATVX     1  Mu1.0005  Se1.026                      -0.11990098     -0.00000000     -0.00000000      0.00000000
ATVX     1  Mu1.0006  Se1.026                      -0.11990092     -0.00000000     -0.00000000      0.00000000
ATVX     1  Mu1.0007  Se1.026                       0.13155422     -0.00000000      0.00000000     -0.00000000
ATVX     1  Mu1.0008  Se1.026                       0.13155422      0.00000000     -0.00000000     -0.00000000
ATVX     1  Mu1.0009  Se1.026                       0.14588817     -0.00000029      0.00006221     -0.00000000
ATVX     1  Mu1.0010  Se1.026                       0.14589800      0.00000169     -0.00036177     -0.00000000
ATVX     1  Mu1.0011  Se1.026                       0.14728482     -0.00000000      0.00000002     -0.00000000
ATVX     1  Mu1.0012  Se1.026                       0.14728907      0.00000000     -0.00000001     -0.00000000
ATVX     1  Mu1.0013  Se1.026                       0.15727495      0.00000000     -0.00000000     -0.00000000
ATVX     1  Mu1.0014  Se1.026                       0.15727495     -0.00000000      0.00000000     -0.00000000
ATVX     1  Mu1.0015  Se1.026                       0.16229128      0.00000140     -0.00002411     -0.00000000
ATVX     1  Mu1.0016  Se1.026                       0.16241096      0.00000002     -0.00000039     -0.00000000
ATVX     1  Mu1.0017  Se1.026                       0.17399426     -0.00000208      0.00000370     -0.00000000
ATVX     1  Mu1.0018  Se1.026                       0.17400542      0.00000031     -0.00000056     -0.00000000
ATVX     1  Mu1.0019  Se1.026                       0.17573983     -0.00000000     -0.00000000      0.00000000
ATVX     1  Mu1.0020  Se1.026                       0.17573989      0.00000000     -0.00000000     -0.00000000
ATVX     1  Mu1.0021  Se1.026                       0.17759396      0.00000000     -0.00000000     -0.00000000
ATVX     1  Mu1.0022  Se1.026                       0.17759984      0.00000000     -0.00000000     -0.00000000
ATVX     1  Mu1.0023  Se1.026                       0.17989573      0.00000000     -0.00000000     -0.00000000
ATVX     1  Mu1.0024  Se1.026                       0.17990275     -0.00000000     -0.00000000      0.00000000
ATVX     1  Mu1.0025  Se1.026                       0.18865419     -0.00000000      0.00000000     -0.00000000
ATVX     1  Mu1.0026  Se1.026                       0.18865419     -0.00000000      0.00000000     -0.00000000
ATVX     1  Mu1.0027  Se1.026                       0.19152628     -0.00000000      0.00000000     -0.00000000
ATVX     1  Mu1.0028  Se1.026                       0.19164268      0.00000000      0.00000000      0.00000000
ATVX     1  Mu1.0029  Se1.026                       0.21106030      0.00000000     -0.00000000     -0.00000000
ATVX     1  Mu1.0030  Se1.026                       0.21294257     -0.00000000     -0.00000000      0.00000000
ATVX     1  Mu1.0031  Se1.026                       0.21294879     -0.00000000      0.00000000     -0.00000000
ATVX     1  Mu1.0032  Se1.026                       0.22113918      0.00000000     -0.00000000     -0.00000000
ATVX     1  Mu1.0033  Se1.026                       0.22119979     -0.00000000      0.00000000     -0.00000000
ATVX     1  Mu1.0034  Se1.026                       0.22258505      0.00000000      0.00000000      0.00000000
ATVX     1  Mu1.0035  Se1.026                       0.22259636     -0.00000000     -0.00000000      0.00000000
ATVX     1  Mu1.0036  Se1.026                       0.22577856      0.00000667     -0.00002192     -0.00000000
ATVX     1  Mu1.0037  Se1.026                       0.22578310      0.00000283     -0.00000928     -0.00000000
ATVX     1  Mu1.0038  Se1.026                       0.24795399     -0.00000000      0.00000000     -0.00000000
ATVX     1  Mu1.0039  Se1.026                       0.24795748      0.00000000     -0.00000000     -0.00000000
ATVX     1  Mu1.0040  Se1.026                       0.25112334     -0.00000075      0.00000254     -0.00000000
ATVX     1  Mu1.0041  Se1.026                       0.25125372      0.00000001     -0.00000003     -0.00000000
ATVX     1  Mu1.0042  Se1.026                       0.25964415      0.00097318     -0.00362893     -0.00000353
ATVX     1  Mu1.0043  Se1.026                       0.26351371      0.00000000     -0.00000000     -0.00000000
ATVX     1  Mu1.0044  Se1.026                       0.26351372      0.00000000     -0.00000000     -0.00000000
ATVX     1  Mu1.0001  Se1.027                      -0.08737246      0.00000000     -0.00000000     -0.00000000
ATVX     1  Mu1.0002  Se1.027                      -0.07232478     -0.00000000      0.00000000     -0.00000000
ATVX     1  Mu1.0003  Se1.027                      -0.07232154      0.00000073     -0.00000445     -0.00000000
ATVX     1  Mu1.0004  Se1.027                      -0.03289744      0.00000000     -0.00000000     -0.00000000
ATVX     1  Mu1.0005  Se1.027                       0.04722669      0.00000094      0.00003048      0.00000000
ATVX     1  Mu1.0006  Se1.027                       0.04722675     -0.00002304     -0.00074587      0.00000002
ATVX     1  Mu1.0007  Se1.027                       0.29868189     -0.00001147      0.00007305     -0.00000000
ATVX     1  Mu1.0008  Se1.027                       0.29868189      0.00000001     -0.00000004     -0.00000000
ATVX     1  Mu1.0001  Se1.028                      -0.08737176     -0.00000000     -0.00000000      0.00000000
ATVX     1  Mu1.0002  Se1.028                      -0.07232408      0.00000073     -0.00000445     -0.00000000
ATVX     1  Mu1.0003  Se1.028                      -0.07232084      0.00000000     -0.00000000     -0.00000000
ATVX     1  Mu1.0004  Se1.028                      -0.03289674     -0.00000000     -0.00000000      0.00000000
ATVX     1  Mu1.0005  Se1.028                       0.04722740      0.00002304      0.00074586      0.00000002
ATVX     1  Mu1.0006  Se1.028                       0.04722746      0.00000094      0.00003048      0.00000000
ATVX     1  Mu1.0007  Se1.028                       0.29868259      0.00000001     -0.00000004     -0.00000000
ATVX     1  Mu1.0008  Se1.028                       0.29868260      0.00001147     -0.00007305     -0.00000000
ATVX     1  Mu1.0001  Se1.029                      -0.08215173      0.00000000      0.00000000      0.00000000
ATVX     1  Mu1.0002  Se1.029                      -0.06710406      0.00000000      0.00000000      0.00000000
ATVX     1  Mu1.0003  Se1.029                      -0.06710081      0.00000000      0.00000000      0.00000000
ATVX     1  Mu1.0004  Se1.029                      -0.02767671     -0.00000000     -0.00000000      0.00000000
ATVX     1  Mu1.0005  Se1.029                       0.05244742     -0.00000000      0.00000000     -0.00000000
ATVX     1  Mu1.0006  Se1.029                       0.05244748      0.00000000     -0.00000000     -0.00000000
ATVX     1  Mu1.0001  Se1.030                       0.08618786     -0.00000000      0.00000000     -0.00000000
ATVX     1  Mu1.0002  Se1.030                       0.10123553      0.00000000      0.00000000      0.00000000
ATVX     1  Mu1.0003  Se1.030                       0.10123878     -0.00000000      0.00000000     -0.00000000
ATVX     1  Mu1.0004  Se1.030                       0.14066288      0.00000000     -0.00000000     -0.00000000
ATVX     1  Mu1.0005  Se1.030                       0.22078701      0.00000000     -0.00000000     -0.00000000
ATVX     1  Mu1.0006  Se1.030                       0.22078707     -0.00000000      0.00000000     -0.00000000
ATVX     1  Mu1.0219  Se1.031                       2.19928040      0.05643454     -0.02675024     -0.00150964
ATVX     1  Mu1.0278  Se1.031                       2.30231749     -0.07255379      0.03210469     -0.00232932
ATVX     1  Mu1.0218  Se1.032                       2.19928031      0.05644461     -0.02675501     -0.00151018
ATVX     1  Mu1.0279  Se1.032                       2.30231752     -0.07255379      0.03210468     -0.00232932
AIVX     1  Mu1.0147  In1.011 Se1.033               3.37862719     -0.09133395      0.02725616     -0.00248941
AIVX     1  Mu1.0169  In1.009 Se1.034               6.56303578      0.17801470     -0.02712398     -0.00482847
AIVX     1  Mu1.0169  In1.010 Se1.035               6.56303697      0.17801542     -0.02712409     -0.00482851
AIVX     1  Mu1.0029  In1.011 Se1.037               3.47023724     -0.10911532      0.03012998     -0.00328764
AIVX     1  Mu1.0030  In1.011 Se1.037               3.47023724     -0.09895512      0.02732445     -0.00270389
AIVX     1  Mu1.0057  In1.011 Se1.038               3.72021988      0.14710208     -0.03797678     -0.00558646
BVATM    1  Mu1.0001  Se1.032 Se1.031               1.96335263      0.07166985     -0.03681118     -0.00263825
BVATM    1  Mu1.0001  Se1.038 Se1.037               5.01061267     -0.12964407      0.02587390     -0.00335440
BJATP    1  Mu1.0002  In1.011 Se1.033 Se1.031       2.95349225     -0.08230521      0.02773786     -0.00228297
BJATP    1  Mu1.0001  In1.011 Se1.033 Se1.032       2.95349226     -0.08230521      0.02773786     -0.00228297
BJATM    1  Mu1.0002  In1.011 Se1.033 Se1.031       2.95349225      0.07821476     -0.02838189     -0.00221988
BJATM    1  Mu1.0001  In1.011 Se1.033 Se1.032       2.95349226      0.07821476     -0.02838189     -0.00221988
BJAIP    1  Se1.033 In1.011 Se1.033 In1.011         3.94359691      0.12144907     -0.03292816     -0.00399909
--
 
   (Skipping property calculation,
    use PROP keyword to activate)
--
 
  Total CASPT2 energies:
::    CASPT2 Root  1     Total energy:  -1345.82808728
 
  A NEW JOBIPH FILE NAMED 'JOBMIX' IS PREPARED.
********************************************************************************
--- Stop Module: caspt2 at Wed Dec 18 04:28:16 2024 /rc=_RC_ALL_IS_WELL_ ---
*** files: xmldump
    saved to directory /home/grierjones/DDCASPT2/iron_oxo_DDCASPT2/cluster/4.82
--- Module caspt2 spent 5 minutes 32 seconds ---

>>> EXPORT i = B

>>> EXPORT j = P

>>> IF (-FILE GMJ_e2_${i}_${j}.csv)

>>> COPY /tmp/4.82/GMJ_RHS_B_P.csv /home/grierjones/DDCASPT2/iron_oxo_DDCASPT2/cluster/4.82/GMJ_RHS_B_P.csv

>>> COPY /tmp/4.82/GMJ_IVECW_B_P.csv /home/grierjones/DDCASPT2/iron_oxo_DDCASPT2/cluster/4.82/GMJ_IVECW_B_P.csv

>>> COPY /tmp/4.82/GMJ_IVECX_B_P.csv /home/grierjones/DDCASPT2/iron_oxo_DDCASPT2/cluster/4.82/GMJ_IVECX_B_P.csv

>>> COPY /tmp/4.82/GMJ_IVECC2_B_P.csv /home/grierjones/DDCASPT2/iron_oxo_DDCASPT2/cluster/4.82/GMJ_IVECC2_B_P.csv

>>> COPY /tmp/4.82/GMJ_e2_B_P.csv /home/grierjones/DDCASPT2/iron_oxo_DDCASPT2/cluster/4.82/GMJ_e2_B_P.csv

>>> END FOREACH

>>> EXPORT j = M

>>> IF (-FILE GMJ_e2_${i}_${j}.csv)

>>> COPY /tmp/4.82/GMJ_RHS_B_M.csv /home/grierjones/DDCASPT2/iron_oxo_DDCASPT2/cluster/4.82/GMJ_RHS_B_M.csv

>>> COPY /tmp/4.82/GMJ_IVECW_B_M.csv /home/grierjones/DDCASPT2/iron_oxo_DDCASPT2/cluster/4.82/GMJ_IVECW_B_M.csv

>>> COPY /tmp/4.82/GMJ_IVECX_B_M.csv /home/grierjones/DDCASPT2/iron_oxo_DDCASPT2/cluster/4.82/GMJ_IVECX_B_M.csv

>>> COPY /tmp/4.82/GMJ_IVECC2_B_M.csv /home/grierjones/DDCASPT2/iron_oxo_DDCASPT2/cluster/4.82/GMJ_IVECC2_B_M.csv

>>> COPY /tmp/4.82/GMJ_e2_B_M.csv /home/grierjones/DDCASPT2/iron_oxo_DDCASPT2/cluster/4.82/GMJ_e2_B_M.csv

>>> END FOREACH

>>> END FOREACH

>>> EXPORT i = E

>>> EXPORT j = P

>>> IF (-FILE GMJ_e2_${i}_${j}.csv)

>>> COPY /tmp/4.82/GMJ_RHS_E_P.csv /home/grierjones/DDCASPT2/iron_oxo_DDCASPT2/cluster/4.82/GMJ_RHS_E_P.csv

>>> COPY /tmp/4.82/GMJ_IVECW_E_P.csv /home/grierjones/DDCASPT2/iron_oxo_DDCASPT2/cluster/4.82/GMJ_IVECW_E_P.csv

>>> COPY /tmp/4.82/GMJ_IVECX_E_P.csv /home/grierjones/DDCASPT2/iron_oxo_DDCASPT2/cluster/4.82/GMJ_IVECX_E_P.csv

>>> COPY /tmp/4.82/GMJ_IVECC2_E_P.csv /home/grierjones/DDCASPT2/iron_oxo_DDCASPT2/cluster/4.82/GMJ_IVECC2_E_P.csv

>>> COPY /tmp/4.82/GMJ_e2_E_P.csv /home/grierjones/DDCASPT2/iron_oxo_DDCASPT2/cluster/4.82/GMJ_e2_E_P.csv

>>> END FOREACH

>>> EXPORT j = M

>>> IF (-FILE GMJ_e2_${i}_${j}.csv)

>>> COPY /tmp/4.82/GMJ_RHS_E_M.csv /home/grierjones/DDCASPT2/iron_oxo_DDCASPT2/cluster/4.82/GMJ_RHS_E_M.csv

>>> COPY /tmp/4.82/GMJ_IVECW_E_M.csv /home/grierjones/DDCASPT2/iron_oxo_DDCASPT2/cluster/4.82/GMJ_IVECW_E_M.csv

>>> COPY /tmp/4.82/GMJ_IVECX_E_M.csv /home/grierjones/DDCASPT2/iron_oxo_DDCASPT2/cluster/4.82/GMJ_IVECX_E_M.csv

>>> COPY /tmp/4.82/GMJ_IVECC2_E_M.csv /home/grierjones/DDCASPT2/iron_oxo_DDCASPT2/cluster/4.82/GMJ_IVECC2_E_M.csv

>>> COPY /tmp/4.82/GMJ_e2_E_M.csv /home/grierjones/DDCASPT2/iron_oxo_DDCASPT2/cluster/4.82/GMJ_e2_E_M.csv

>>> END FOREACH

>>> END FOREACH

>>> EXPORT i = F

>>> EXPORT j = P

>>> IF (-FILE GMJ_e2_${i}_${j}.csv)

>>> COPY /tmp/4.82/GMJ_RHS_F_P.csv /home/grierjones/DDCASPT2/iron_oxo_DDCASPT2/cluster/4.82/GMJ_RHS_F_P.csv

>>> COPY /tmp/4.82/GMJ_IVECW_F_P.csv /home/grierjones/DDCASPT2/iron_oxo_DDCASPT2/cluster/4.82/GMJ_IVECW_F_P.csv

>>> COPY /tmp/4.82/GMJ_IVECX_F_P.csv /home/grierjones/DDCASPT2/iron_oxo_DDCASPT2/cluster/4.82/GMJ_IVECX_F_P.csv

>>> COPY /tmp/4.82/GMJ_IVECC2_F_P.csv /home/grierjones/DDCASPT2/iron_oxo_DDCASPT2/cluster/4.82/GMJ_IVECC2_F_P.csv

>>> COPY /tmp/4.82/GMJ_e2_F_P.csv /home/grierjones/DDCASPT2/iron_oxo_DDCASPT2/cluster/4.82/GMJ_e2_F_P.csv

>>> END FOREACH

>>> EXPORT j = M

>>> IF (-FILE GMJ_e2_${i}_${j}.csv)

>>> COPY /tmp/4.82/GMJ_RHS_F_M.csv /home/grierjones/DDCASPT2/iron_oxo_DDCASPT2/cluster/4.82/GMJ_RHS_F_M.csv

>>> COPY /tmp/4.82/GMJ_IVECW_F_M.csv /home/grierjones/DDCASPT2/iron_oxo_DDCASPT2/cluster/4.82/GMJ_IVECW_F_M.csv

>>> COPY /tmp/4.82/GMJ_IVECX_F_M.csv /home/grierjones/DDCASPT2/iron_oxo_DDCASPT2/cluster/4.82/GMJ_IVECX_F_M.csv

>>> COPY /tmp/4.82/GMJ_IVECC2_F_M.csv /home/grierjones/DDCASPT2/iron_oxo_DDCASPT2/cluster/4.82/GMJ_IVECC2_F_M.csv

>>> COPY /tmp/4.82/GMJ_e2_F_M.csv /home/grierjones/DDCASPT2/iron_oxo_DDCASPT2/cluster/4.82/GMJ_e2_F_M.csv

>>> END FOREACH

>>> END FOREACH

>>> EXPORT i = G

>>> EXPORT j = P

>>> IF (-FILE GMJ_e2_${i}_${j}.csv)

>>> COPY /tmp/4.82/GMJ_RHS_G_P.csv /home/grierjones/DDCASPT2/iron_oxo_DDCASPT2/cluster/4.82/GMJ_RHS_G_P.csv

>>> COPY /tmp/4.82/GMJ_IVECW_G_P.csv /home/grierjones/DDCASPT2/iron_oxo_DDCASPT2/cluster/4.82/GMJ_IVECW_G_P.csv

>>> COPY /tmp/4.82/GMJ_IVECX_G_P.csv /home/grierjones/DDCASPT2/iron_oxo_DDCASPT2/cluster/4.82/GMJ_IVECX_G_P.csv

>>> COPY /tmp/4.82/GMJ_IVECC2_G_P.csv /home/grierjones/DDCASPT2/iron_oxo_DDCASPT2/cluster/4.82/GMJ_IVECC2_G_P.csv

>>> COPY /tmp/4.82/GMJ_e2_G_P.csv /home/grierjones/DDCASPT2/iron_oxo_DDCASPT2/cluster/4.82/GMJ_e2_G_P.csv

>>> END FOREACH

>>> EXPORT j = M

>>> IF (-FILE GMJ_e2_${i}_${j}.csv)

>>> COPY /tmp/4.82/GMJ_RHS_G_M.csv /home/grierjones/DDCASPT2/iron_oxo_DDCASPT2/cluster/4.82/GMJ_RHS_G_M.csv

>>> COPY /tmp/4.82/GMJ_IVECW_G_M.csv /home/grierjones/DDCASPT2/iron_oxo_DDCASPT2/cluster/4.82/GMJ_IVECW_G_M.csv

>>> COPY /tmp/4.82/GMJ_IVECX_G_M.csv /home/grierjones/DDCASPT2/iron_oxo_DDCASPT2/cluster/4.82/GMJ_IVECX_G_M.csv

>>> COPY /tmp/4.82/GMJ_IVECC2_G_M.csv /home/grierjones/DDCASPT2/iron_oxo_DDCASPT2/cluster/4.82/GMJ_IVECC2_G_M.csv

>>> COPY /tmp/4.82/GMJ_e2_G_M.csv /home/grierjones/DDCASPT2/iron_oxo_DDCASPT2/cluster/4.82/GMJ_e2_G_M.csv

>>> END FOREACH

>>> END FOREACH

>>> EXPORT i = H

>>> EXPORT j = P

>>> IF (-FILE GMJ_e2_${i}_${j}.csv)

>>> COPY /tmp/4.82/GMJ_RHS_H_P.csv /home/grierjones/DDCASPT2/iron_oxo_DDCASPT2/cluster/4.82/GMJ_RHS_H_P.csv

>>> COPY /tmp/4.82/GMJ_IVECW_H_P.csv /home/grierjones/DDCASPT2/iron_oxo_DDCASPT2/cluster/4.82/GMJ_IVECW_H_P.csv

>>> COPY /tmp/4.82/GMJ_IVECX_H_P.csv /home/grierjones/DDCASPT2/iron_oxo_DDCASPT2/cluster/4.82/GMJ_IVECX_H_P.csv

>>> COPY /tmp/4.82/GMJ_IVECC2_H_P.csv /home/grierjones/DDCASPT2/iron_oxo_DDCASPT2/cluster/4.82/GMJ_IVECC2_H_P.csv

>>> COPY /tmp/4.82/GMJ_e2_H_P.csv /home/grierjones/DDCASPT2/iron_oxo_DDCASPT2/cluster/4.82/GMJ_e2_H_P.csv

>>> END FOREACH

>>> EXPORT j = M

>>> IF (-FILE GMJ_e2_${i}_${j}.csv)

>>> COPY /tmp/4.82/GMJ_RHS_H_M.csv /home/grierjones/DDCASPT2/iron_oxo_DDCASPT2/cluster/4.82/GMJ_RHS_H_M.csv

>>> COPY /tmp/4.82/GMJ_IVECW_H_M.csv /home/grierjones/DDCASPT2/iron_oxo_DDCASPT2/cluster/4.82/GMJ_IVECW_H_M.csv

>>> COPY /tmp/4.82/GMJ_IVECX_H_M.csv /home/grierjones/DDCASPT2/iron_oxo_DDCASPT2/cluster/4.82/GMJ_IVECX_H_M.csv

>>> COPY /tmp/4.82/GMJ_IVECC2_H_M.csv /home/grierjones/DDCASPT2/iron_oxo_DDCASPT2/cluster/4.82/GMJ_IVECC2_H_M.csv

>>> COPY /tmp/4.82/GMJ_e2_H_M.csv /home/grierjones/DDCASPT2/iron_oxo_DDCASPT2/cluster/4.82/GMJ_e2_H_M.csv

>>> END FOREACH

>>> END FOREACH

>>> EXPORT i = A

>>> IF (-FILE GMJ_e2_$i.csv)

>>> COPY /tmp/4.82/GMJ_RHS_A.csv /home/grierjones/DDCASPT2/iron_oxo_DDCASPT2/cluster/4.82/GMJ_RHS_A.csv

>>> COPY /tmp/4.82/GMJ_IVECW_A.csv /home/grierjones/DDCASPT2/iron_oxo_DDCASPT2/cluster/4.82/GMJ_IVECW_A.csv

>>> COPY /tmp/4.82/GMJ_IVECX_A.csv /home/grierjones/DDCASPT2/iron_oxo_DDCASPT2/cluster/4.82/GMJ_IVECX_A.csv

>>> COPY /tmp/4.82/GMJ_IVECC2_A.csv /home/grierjones/DDCASPT2/iron_oxo_DDCASPT2/cluster/4.82/GMJ_IVECC2_A.csv

>>> COPY /tmp/4.82/GMJ_e2_A.csv /home/grierjones/DDCASPT2/iron_oxo_DDCASPT2/cluster/4.82/GMJ_e2_A.csv

>>> END FOREACH

>>> EXPORT i = C

>>> IF (-FILE GMJ_e2_$i.csv)

>>> COPY /tmp/4.82/GMJ_RHS_C.csv /home/grierjones/DDCASPT2/iron_oxo_DDCASPT2/cluster/4.82/GMJ_RHS_C.csv

>>> COPY /tmp/4.82/GMJ_IVECW_C.csv /home/grierjones/DDCASPT2/iron_oxo_DDCASPT2/cluster/4.82/GMJ_IVECW_C.csv

>>> COPY /tmp/4.82/GMJ_IVECX_C.csv /home/grierjones/DDCASPT2/iron_oxo_DDCASPT2/cluster/4.82/GMJ_IVECX_C.csv

>>> COPY /tmp/4.82/GMJ_IVECC2_C.csv /home/grierjones/DDCASPT2/iron_oxo_DDCASPT2/cluster/4.82/GMJ_IVECC2_C.csv

>>> COPY /tmp/4.82/GMJ_e2_C.csv /home/grierjones/DDCASPT2/iron_oxo_DDCASPT2/cluster/4.82/GMJ_e2_C.csv

>>> END FOREACH

>>> EXPORT i = D

>>> IF (-FILE GMJ_e2_$i.csv)

>>> COPY /tmp/4.82/GMJ_RHS_D.csv /home/grierjones/DDCASPT2/iron_oxo_DDCASPT2/cluster/4.82/GMJ_RHS_D.csv

>>> COPY /tmp/4.82/GMJ_IVECW_D.csv /home/grierjones/DDCASPT2/iron_oxo_DDCASPT2/cluster/4.82/GMJ_IVECW_D.csv

>>> COPY /tmp/4.82/GMJ_IVECX_D.csv /home/grierjones/DDCASPT2/iron_oxo_DDCASPT2/cluster/4.82/GMJ_IVECX_D.csv

>>> COPY /tmp/4.82/GMJ_IVECC2_D.csv /home/grierjones/DDCASPT2/iron_oxo_DDCASPT2/cluster/4.82/GMJ_IVECC2_D.csv

>>> COPY /tmp/4.82/GMJ_e2_D.csv /home/grierjones/DDCASPT2/iron_oxo_DDCASPT2/cluster/4.82/GMJ_e2_D.csv

>>> END FOREACH

.########################.
.# Non-zero return code #.
.########################.

    Timing: Wall=408.35 User=404.80 System=3.41
************************************
*** WorkDir at /tmp/4.82 cleaned ***
************************************
