[Molden Format]
[N_Atoms]
                     2
[Atoms] (AU)
F1          1      9           0.00000000      0.00000000      0.00000000
F2          2      9           0.00000000      0.00000000      2.26767135
[Charge] (Mulliken)
   1.00000000000019     
  0.999999999999805     
[GTO] (AU)
   1
   s  14
  1.031094600E+05  1.713099991E-04
  1.528100700E+04  7.123999962E-04
  3.441539200E+03  2.990479984E-03
  9.670948300E+02  1.164036994E-02
  3.140353400E+02  3.968642979E-02
  1.134423000E+02  1.128546094E-01
  4.464472700E+01  2.473650687E-01
  1.894287400E+01  3.672702681E-01
  8.532743000E+00  2.896286985E-01
  3.919401000E+00  7.786681959E-02
  1.568157000E+00  4.562139976E-03
  6.232900000E-01  2.468879987E-03
  2.408610000E-01  1.106309994E-03
  8.430100000E-02  1.739699991E-04
   s  14
  1.031094600E+05 -4.044999995E-05
  1.528100700E+04 -1.682299998E-04
  3.441539200E+03 -7.084299991E-04
  9.670948300E+02 -2.767999996E-03
  3.140353400E+02 -9.611379987E-03
  1.134423000E+02 -2.833957996E-02
  4.464472700E+01 -6.839343991E-02
  1.894287400E+01 -1.237379298E-01
  8.532743000E+00 -1.512859698E-01
  3.919401000E+00 -9.099909988E-03
  1.568157000E+00  3.716257695E-01
  6.232900000E-01  5.500214393E-01
  2.408610000E-01  2.092318697E-01
  8.430100000E-02  8.074639989E-03
   p   9
  2.453302900E+02  1.024860004E-03
  5.691900500E+01  8.344290032E-03
  1.760456800E+01  4.078927016E-02
  6.274995000E+00  1.351370605E-01
  2.447030000E+00  2.798830811E-01
  9.950600000E-01  3.597966414E-01
  4.039730000E-01  3.055347412E-01
  1.548100000E-01  1.354703905E-01
  5.418400000E-02  2.804449011E-02
 
   2
   s  14
  1.031094600E+05  1.713099991E-04
  1.528100700E+04  7.123999962E-04
  3.441539200E+03  2.990479984E-03
  9.670948300E+02  1.164036994E-02
  3.140353400E+02  3.968642979E-02
  1.134423000E+02  1.128546094E-01
  4.464472700E+01  2.473650687E-01
  1.894287400E+01  3.672702681E-01
  8.532743000E+00  2.896286985E-01
  3.919401000E+00  7.786681959E-02
  1.568157000E+00  4.562139976E-03
  6.232900000E-01  2.468879987E-03
  2.408610000E-01  1.106309994E-03
  8.430100000E-02  1.739699991E-04
   s  14
  1.031094600E+05 -4.044999995E-05
  1.528100700E+04 -1.682299998E-04
  3.441539200E+03 -7.084299991E-04
  9.670948300E+02 -2.767999996E-03
  3.140353400E+02 -9.611379987E-03
  1.134423000E+02 -2.833957996E-02
  4.464472700E+01 -6.839343991E-02
  1.894287400E+01 -1.237379298E-01
  8.532743000E+00 -1.512859698E-01
  3.919401000E+00 -9.099909988E-03
  1.568157000E+00  3.716257695E-01
  6.232900000E-01  5.500214393E-01
  2.408610000E-01  2.092318697E-01
  8.430100000E-02  8.074639989E-03
   p   9
  2.453302900E+02  1.024860004E-03
  5.691900500E+01  8.344290032E-03
  1.760456800E+01  4.078927016E-02
  6.274995000E+00  1.351370605E-01
  2.447030000E+00  2.798830811E-01
  9.950600000E-01  3.597966414E-01
  4.039730000E-01  3.055347412E-01
  1.548100000E-01  1.354703905E-01
  5.418400000E-02  2.804449011E-02
 
[MO]
Sym=     1a  
Ene=   -28.2210
Spin= Alpha
Occup=    2.00000
   1         0.70705786
   2        -0.00363737
   3        -0.00000000
   4        -0.00000000
   5         0.00091397
   6         0.70705787
   7        -0.00363737
   8        -0.00000000
   9         0.00000000
  10        -0.00091397
Sym=     2a  
Ene=   -28.2200
Spin= Alpha
Occup=    2.00000
   1        -0.70713762
   2         0.00332655
   3        -0.00000000
   4        -0.00000000
   5        -0.00078649
   6         0.70713761
   7        -0.00332655
   8        -0.00000000
   9        -0.00000000
  10        -0.00078649
Sym=     3a  
Ene=    -3.2354
Spin= Alpha
Occup=    2.00000
   1        -0.01420439
   2         0.56494297
   3        -0.00000000
   4        -0.00000000
   5         0.18463106
   6        -0.01420439
   7         0.56494297
   8        -0.00000000
   9         0.00000000
  10        -0.18463106
Sym=     4a  
Ene=    -2.6888
Spin= Alpha
Occup=    2.00000
   1        -0.01541000
   2        -0.78712058
   3         0.00000000
   4        -0.00000000
   5         0.03952883
   6         0.01541000
   7         0.78712058
   8         0.00000000
   9         0.00000000
  10         0.03952883
Sym=     5a  
Ene=    -2.0595
Spin= Alpha
Occup=    2.00000
   1         0.02223969
   2         0.34381891
   3        -0.00000000
   4        -0.00000000
   5        -0.63522353
   6         0.02223969
   7         0.34381891
   8        -0.00000000
   9        -0.00000000
  10         0.63522353
Sym=     6a  
Ene=    -2.0171
Spin= Alpha
Occup=    2.00000
   1        -0.00000000
   2        -0.00000000
   3         0.55576845
   4        -0.33571737
   5         0.00000000
   6        -0.00000000
   7        -0.00000000
   8         0.55576845
   9        -0.33571737
  10        -0.00000000
Sym=     7a  
Ene=    -2.0171
Spin= Alpha
Occup=    2.00000
   1         0.00000000
   2         0.00000000
   3         0.33571737
   4         0.55576845
   5        -0.00000000
   6         0.00000000
   7         0.00000000
   8         0.33571737
   9         0.55576845
  10         0.00000000
Sym=     8a  
Ene=    -1.6367
Spin= Alpha
Occup=    1.00000
   1         0.00000000
   2        -0.00000000
   3         0.51951885
   4         0.58681489
   5         0.00000000
   6         0.00000000
   7         0.00000000
   8        -0.51951885
   9        -0.58681489
  10         0.00000000
Sym=     9a  
Ene=     0.0000
Spin= Alpha
Occup=    1.00000
   1        -0.00000000
   2        -0.00000000
   3         0.58681489
   4        -0.51951885
   5         0.00000000
   6         0.00000000
   7         0.00000000
   8        -0.58681489
   9         0.51951885
  10        -0.00000000
Sym=    10a  
Ene=    -1.0416
Spin= Alpha
Occup=    0.00000
   1         0.04323150
   2         0.40383448
   3        -0.00000000
   4        -0.00000000
   5         0.88506237
   6        -0.04323150
   7        -0.40383448
   8        -0.00000000
   9         0.00000000
  10         0.88506237
