[Molden Format]
[N_Atoms]
                     2
[Atoms] (AU)
F1          1      9           0.00000000      0.00000000      0.00000000
F2          2      9           0.00000000      0.00000000      2.26767135
[Charge] (Mulliken)
  1.030286966852145E-013
 -1.065814103640150E-013
[GTO] (AU)
   1
   s  14
  1.031094600E+05  1.713099991E-04
  1.528100700E+04  7.123999962E-04
  3.441539200E+03  2.990479984E-03
  9.670948300E+02  1.164036994E-02
  3.140353400E+02  3.968642979E-02
  1.134423000E+02  1.128546094E-01
  4.464472700E+01  2.473650687E-01
  1.894287400E+01  3.672702681E-01
  8.532743000E+00  2.896286985E-01
  3.919401000E+00  7.786681959E-02
  1.568157000E+00  4.562139976E-03
  6.232900000E-01  2.468879987E-03
  2.408610000E-01  1.106309994E-03
  8.430100000E-02  1.739699991E-04
   s  14
  1.031094600E+05 -4.044999995E-05
  1.528100700E+04 -1.682299998E-04
  3.441539200E+03 -7.084299991E-04
  9.670948300E+02 -2.767999996E-03
  3.140353400E+02 -9.611379987E-03
  1.134423000E+02 -2.833957996E-02
  4.464472700E+01 -6.839343991E-02
  1.894287400E+01 -1.237379298E-01
  8.532743000E+00 -1.512859698E-01
  3.919401000E+00 -9.099909988E-03
  1.568157000E+00  3.716257695E-01
  6.232900000E-01  5.500214393E-01
  2.408610000E-01  2.092318697E-01
  8.430100000E-02  8.074639989E-03
   p   9
  2.453302900E+02  1.024860004E-03
  5.691900500E+01  8.344290032E-03
  1.760456800E+01  4.078927016E-02
  6.274995000E+00  1.351370605E-01
  2.447030000E+00  2.798830811E-01
  9.950600000E-01  3.597966414E-01
  4.039730000E-01  3.055347412E-01
  1.548100000E-01  1.354703905E-01
  5.418400000E-02  2.804449011E-02
 
   2
   s  14
  1.031094600E+05  1.713099991E-04
  1.528100700E+04  7.123999962E-04
  3.441539200E+03  2.990479984E-03
  9.670948300E+02  1.164036994E-02
  3.140353400E+02  3.968642979E-02
  1.134423000E+02  1.128546094E-01
  4.464472700E+01  2.473650687E-01
  1.894287400E+01  3.672702681E-01
  8.532743000E+00  2.896286985E-01
  3.919401000E+00  7.786681959E-02
  1.568157000E+00  4.562139976E-03
  6.232900000E-01  2.468879987E-03
  2.408610000E-01  1.106309994E-03
  8.430100000E-02  1.739699991E-04
   s  14
  1.031094600E+05 -4.044999995E-05
  1.528100700E+04 -1.682299998E-04
  3.441539200E+03 -7.084299991E-04
  9.670948300E+02 -2.767999996E-03
  3.140353400E+02 -9.611379987E-03
  1.134423000E+02 -2.833957996E-02
  4.464472700E+01 -6.839343991E-02
  1.894287400E+01 -1.237379298E-01
  8.532743000E+00 -1.512859698E-01
  3.919401000E+00 -9.099909988E-03
  1.568157000E+00  3.716257695E-01
  6.232900000E-01  5.500214393E-01
  2.408610000E-01  2.092318697E-01
  8.430100000E-02  8.074639989E-03
   p   9
  2.453302900E+02  1.024860004E-03
  5.691900500E+01  8.344290032E-03
  1.760456800E+01  4.078927016E-02
  6.274995000E+00  1.351370605E-01
  2.447030000E+00  2.798830811E-01
  9.950600000E-01  3.597966414E-01
  4.039730000E-01  3.055347412E-01
  1.548100000E-01  1.354703905E-01
  5.418400000E-02  2.804449011E-02
 
[MO]
Sym=     1a  
Ene=   -26.5140
Spin= Alpha
Occup=    2.00000
   1         0.70704897
   2        -0.00251391
   3        -0.00000000
   4        -0.00000000
   5         0.00078720
   6         0.70704898
   7        -0.00251391
   8        -0.00000000
   9        -0.00000000
  10        -0.00078720
Sym=     2a  
Ene=   -26.5130
Spin= Alpha
Occup=    2.00000
   1        -0.70718781
   2         0.00164216
   3        -0.00000000
   4        -0.00000000
   5        -0.00117725
   6         0.70718780
   7        -0.00164216
   8        -0.00000000
   9        -0.00000000
  10        -0.00117725
Sym=     3a  
Ene=    -1.9825
Spin= Alpha
Occup=    2.00000
   1        -0.01425030
   2         0.58098418
   3        -0.00000000
   4         0.00000000
   5         0.15355141
   6        -0.01425030
   7         0.58098418
   8        -0.00000000
   9        -0.00000000
  10        -0.15355141
Sym=     4a  
Ene=    -1.4827
Spin= Alpha
Occup=    2.00000
   1        -0.01070980
   2        -0.75331898
   3         0.00000000
   4         0.00000000
   5         0.10827253
   6         0.01070980
   7         0.75331898
   8         0.00000000
   9        -0.00000000
  10         0.10827253
Sym=     5a  
Ene=    -0.9152
Spin= Alpha
Occup=    2.00000
   1        -0.00000000
   2        -0.00000000
   3        -0.03942247
   4         0.64809767
   5         0.00000000
   6        -0.00000000
   7        -0.00000000
   8        -0.03942247
   9         0.64809767
  10        -0.00000000
Sym=     6a  
Ene=    -0.9148
Spin= Alpha
Occup=    2.00000
   1        -0.00000000
   2         0.00000000
   3         0.64809767
   4         0.03942247
   5         0.00000000
   6        -0.00000000
   7        -0.00000000
   8         0.64809767
   9         0.03942247
  10        -0.00000000
Sym=     7a  
Ene=    -0.8563
Spin= Alpha
Occup=    2.00000
   1         0.02249140
   2         0.31596881
   3         0.00000000
   4         0.00000000
   5        -0.64344366
   6         0.02249140
   7         0.31596881
   8         0.00000000
   9         0.00000000
  10         0.64344366
Sym=     8a  
Ene=    -0.6726
Spin= Alpha
Occup=    2.00000
   1        -0.00000000
   2        -0.00000000
   3         0.04758549
   4        -0.78229609
   5         0.00000000
   6        -0.00000000
   7        -0.00000000
   8        -0.04758549
   9         0.78229609
  10        -0.00000000
Sym=     9a  
Ene=    -0.6713
Spin= Alpha
Occup=    1.99530
   1        -0.00000000
   2         0.00000000
   3        -0.78229609
   4        -0.04758549
   5        -0.00000000
   6        -0.00000000
   7        -0.00000000
   8         0.78229609
   9         0.04758549
  10        -0.00000000
Sym=    10a  
Ene=     0.0004
Spin= Alpha
Occup=    0.00470
   1         0.04382633
   2         0.46385341
   3        -0.00000000
   4        -0.00000000
   5         0.87930326
   6        -0.04382633
   7        -0.46385341
   8        -0.00000000
   9         0.00000000
  10         0.87930326
