[Molden Format]
[N_Atoms]
                     2
[Atoms] (AU)
F1          1      9           0.00000000      0.00000000      0.00000000
F2          2      9           0.00000000      0.00000000      2.26767135
[Charge] (Mulliken)
  0.000000000000000E+000
  0.000000000000000E+000
[GTO] (AU)
   1
   s  14
  1.031094600E+05  1.713099991E-04
  1.528100700E+04  7.123999962E-04
  3.441539200E+03  2.990479984E-03
  9.670948300E+02  1.164036994E-02
  3.140353400E+02  3.968642979E-02
  1.134423000E+02  1.128546094E-01
  4.464472700E+01  2.473650687E-01
  1.894287400E+01  3.672702681E-01
  8.532743000E+00  2.896286985E-01
  3.919401000E+00  7.786681959E-02
  1.568157000E+00  4.562139976E-03
  6.232900000E-01  2.468879987E-03
  2.408610000E-01  1.106309994E-03
  8.430100000E-02  1.739699991E-04
   s  14
  1.031094600E+05 -4.044999995E-05
  1.528100700E+04 -1.682299998E-04
  3.441539200E+03 -7.084299991E-04
  9.670948300E+02 -2.767999996E-03
  3.140353400E+02 -9.611379987E-03
  1.134423000E+02 -2.833957996E-02
  4.464472700E+01 -6.839343991E-02
  1.894287400E+01 -1.237379298E-01
  8.532743000E+00 -1.512859698E-01
  3.919401000E+00 -9.099909988E-03
  1.568157000E+00  3.716257695E-01
  6.232900000E-01  5.500214393E-01
  2.408610000E-01  2.092318697E-01
  8.430100000E-02  8.074639989E-03
   p   9
  2.453302900E+02  1.024860004E-03
  5.691900500E+01  8.344290032E-03
  1.760456800E+01  4.078927016E-02
  6.274995000E+00  1.351370605E-01
  2.447030000E+00  2.798830811E-01
  9.950600000E-01  3.597966414E-01
  4.039730000E-01  3.055347412E-01
  1.548100000E-01  1.354703905E-01
  5.418400000E-02  2.804449011E-02
 
   2
   s  14
  1.031094600E+05  1.713099991E-04
  1.528100700E+04  7.123999962E-04
  3.441539200E+03  2.990479984E-03
  9.670948300E+02  1.164036994E-02
  3.140353400E+02  3.968642979E-02
  1.134423000E+02  1.128546094E-01
  4.464472700E+01  2.473650687E-01
  1.894287400E+01  3.672702681E-01
  8.532743000E+00  2.896286985E-01
  3.919401000E+00  7.786681959E-02
  1.568157000E+00  4.562139976E-03
  6.232900000E-01  2.468879987E-03
  2.408610000E-01  1.106309994E-03
  8.430100000E-02  1.739699991E-04
   s  14
  1.031094600E+05 -4.044999995E-05
  1.528100700E+04 -1.682299998E-04
  3.441539200E+03 -7.084299991E-04
  9.670948300E+02 -2.767999996E-03
  3.140353400E+02 -9.611379987E-03
  1.134423000E+02 -2.833957996E-02
  4.464472700E+01 -6.839343991E-02
  1.894287400E+01 -1.237379298E-01
  8.532743000E+00 -1.512859698E-01
  3.919401000E+00 -9.099909988E-03
  1.568157000E+00  3.716257695E-01
  6.232900000E-01  5.500214393E-01
  2.408610000E-01  2.092318697E-01
  8.430100000E-02  8.074639989E-03
   p   9
  2.453302900E+02  1.024860004E-03
  5.691900500E+01  8.344290032E-03
  1.760456800E+01  4.078927016E-02
  6.274995000E+00  1.351370605E-01
  2.447030000E+00  2.798830811E-01
  9.950600000E-01  3.597966414E-01
  4.039730000E-01  3.055347412E-01
  1.548100000E-01  1.354703905E-01
  5.418400000E-02  2.804449011E-02
 
[MO]
Sym=     1a  
Ene=   -26.4150
Spin= Alpha
Occup=    2.00000
   1         0.70699177
   2         0.00081601
   3        -0.00000000
   4        -0.00000000
   5         0.00084582
   6         0.70699177
   7         0.00081601
   8         0.00000000
   9        -0.00000000
  10        -0.00084582
Sym=     2a  
Ene=   -26.4050
Spin= Alpha
Occup=    2.00000
   1        -0.70712329
   2         0.00075985
   3         0.00000000
   4         0.00000000
   5         0.00082109
   6         0.70712329
   7        -0.00075985
   8         0.00000000
   9         0.00000000
  10         0.00082109
Sym=     3a  
Ene=    -2.0369
Spin= Alpha
Occup=    2.00000
   1        -0.01679315
   2         0.59565264
   3         0.00000000
   4        -0.00000000
   5         0.12210677
   6        -0.01679315
   7         0.59565264
   8        -0.00000000
   9         0.00000000
  10        -0.12210677
Sym=     4a  
Ene=    -1.3664
Spin= Alpha
Occup=    2.00000
   1        -0.00399970
   2        -0.69783478
   3        -0.00000000
   4        -0.00000000
   5         0.20416808
   6         0.00399970
   7         0.69783478
   8        -0.00000000
   9        -0.00000000
  10         0.20416808
Sym=     5a  
Ene=    -0.8672
Spin= Alpha
Occup=    2.00000
   1         0.00000000
   2         0.00000000
   3         0.59408406
   4         0.26200925
   5         0.00000000
   6        -0.00000000
   7        -0.00000000
   8         0.59408406
   9         0.26200925
  10         0.00000000
Sym=     6a  
Ene=    -0.8672
Spin= Alpha
Occup=    2.00000
   1         0.00000000
   2         0.00000000
   3        -0.26200925
   4         0.59408406
   5         0.00000000
   6        -0.00000000
   7        -0.00000000
   8        -0.26200925
   9         0.59408406
  10         0.00000000
Sym=     7a  
Ene=    -0.7931
Spin= Alpha
Occup=    2.00000
   1         0.02253491
   2         0.28737170
   3        -0.00000000
   4        -0.00000000
   5        -0.65014431
   6         0.02253491
   7         0.28737170
   8        -0.00000000
   9         0.00000000
  10         0.65014431
Sym=     8a  
Ene=    -0.5952
Spin= Alpha
Occup=    2.00000
   1         0.00000000
   2         0.00000000
   3        -0.77279848
   4         0.13051462
   5        -0.00000000
   6        -0.00000000
   7         0.00000000
   8         0.77279848
   9        -0.13051462
  10         0.00000000
Sym=     9a  
Ene=    -0.5952
Spin= Alpha
Occup=    2.00000
   1         0.00000000
   2         0.00000000
   3        -0.13051462
   4        -0.77279848
   5         0.00000000
   6        -0.00000000
   7        -0.00000000
   8         0.13051462
   9         0.77279848
  10        -0.00000000
Sym=    10a  
Ene=    -0.4153
Spin= Alpha
Occup=    0.00000
   1         0.04594235
   2         0.54376300
   3        -0.00000000
   4        -0.00000000
   5         0.86209818
   6        -0.04594235
   7        -0.54376300
   8        -0.00000000
   9        -0.00000000
  10         0.86209818
