[Molden Format]
[N_Atoms]
                     2
[Atoms] (AU)
BE1         1      4           0.00000000      0.00000000      0.00000000
N2          2      7           0.00000000      0.00000000      3.21253441
[Charge] (Mulliken)
  0.135677109984012     
 -0.135677109984076     
[GTO] (AU)
   1
   s  14
  2.262859900E+04  8.443999941E-05
  3.372318100E+03  4.601499968E-04
  7.603504000E+02  2.285389984E-03
  2.117404800E+02  9.648129932E-03
  6.722346800E+01  3.494469975E-02
  2.337217700E+01  1.061099893E-01
  8.721373000E+00  2.458240383E-01
  3.468091000E+00  3.862428773E-01
  1.452144000E+00  3.105526078E-01
  6.086150000E-01  6.415933955E-02
  2.576860000E-01 -2.265049984E-03
  1.041760000E-01 -5.217499963E-04
  4.242700000E-02 -8.757499938E-04
  1.484900000E-02  1.242199991E-04
   s  14
  2.262859900E+04 -1.586999994E-05
  3.372318100E+03 -8.656999968E-05
  7.603504000E+02 -4.302199984E-04
  2.117404800E+02 -1.825079993E-03
  6.722346800E+01 -6.682749976E-03
  2.337217700E+01 -2.095119992E-02
  8.721373000E+00 -5.200308981E-02
  3.468091000E+00 -9.849176964E-02
  1.452144000E+00 -1.355800695E-01
  6.086150000E-01 -6.429875976E-02
  2.576860000E-01  3.125414989E-01
  1.041760000E-01  6.270468577E-01
  4.242700000E-02  2.110231492E-01
  1.484900000E-02 -4.104669985E-03
   p   9
  3.371018400E+01  1.069960000E-03
  8.057649500E+00  6.828550001E-03
  2.836471400E+00  2.119065000E-02
  1.099965700E+00  5.843696001E-02
  4.433964000E-01  2.020920800E-01
  1.822264000E-01  4.582953101E-01
  7.572410000E-02  3.691239601E-01
  3.168540000E-02  6.611471001E-02
  1.108990000E-02  1.405160000E-03
 
   2
   s  14
  7.476171500E+04  1.182599996E-04
  1.112365400E+04  5.172899983E-04
  2.512685700E+03  2.266659992E-03
  7.037772900E+02  9.145289970E-03
  2.254787900E+02  3.239342989E-02
  7.961581000E+01  9.770792967E-02
  3.023728300E+01  2.317036792E-01
  1.226362200E+01  3.768898887E-01
  5.265086000E+00  3.177420689E-01
  2.333471000E+00  8.211308973E-02
  9.018560000E-01  3.312089989E-03
  3.583360000E-01  3.720819988E-03
  1.410930000E-01  3.165419989E-03
  4.938300000E-02  4.595799985E-04
   s  14
  7.476171500E+04 -2.707000010E-05
  1.112365400E+04 -1.183700004E-04
  2.512685700E+03 -5.203800020E-04
  7.037772900E+02 -2.102930008E-03
  2.254787900E+02 -7.568200028E-03
  7.961581000E+01 -2.346767009E-02
  3.023728300E+01 -6.042901023E-02
  1.226362200E+01 -1.170549104E-01
  5.265086000E+00 -1.555321506E-01
  2.333471000E+00 -2.468935009E-02
  9.018560000E-01  3.625054514E-01
  3.583360000E-01  5.550845021E-01
  1.410930000E-01  2.148376908E-01
  4.938300000E-02  8.983850034E-03
   p   9
  1.266665700E+02  1.233630000E-03
  2.983738900E+01  9.493409996E-03
  9.394038000E+00  4.293961998E-02
  3.405104000E+00  1.362925399E-01
  1.350000000E+00  2.921362499E-01
  5.576960000E-01  3.887887598E-01
  2.324490000E-01  2.946801399E-01
  9.426400000E-02  8.012875997E-02
  3.299200000E-02  5.405199998E-04
 
[MO]
Sym=     1a  
Ene=   -15.6330
Spin= Alpha
Occup=    1.00000
   1        -0.00040866
   2        -0.00216153
   3        -0.00000000
   4        -0.00000000
   5        -0.00209712
   6         1.00022286
   7        -0.00091216
   8        -0.00000000
   9        -0.00000000
  10        -0.00109652
Sym=     1a  
Ene=   -15.5490
Spin= Beta
Occup=    1.00000
   1        -0.00017513
   2        -0.00079981
   3        -0.00000000
   4        -0.00000000
   5        -0.00062511
   6         1.00004067
   7        -0.00759756
   8        -0.00000000
   9        -0.00000000
  10        -0.00061304
Sym=     2a  
Ene=    -4.7297
Spin= Alpha
Occup=    1.00000
   1         0.99986563
   2         0.00294070
   3         0.00000000
   4         0.00000000
   5         0.00134740
   6        -0.00022562
   7         0.00078227
   8         0.00000000
   9        -0.00000000
  10        -0.00149814
Sym=     2a  
Ene=    -4.7564
Spin= Beta
Occup=    1.00000
   1         0.99993340
   2         0.00394311
   3         0.00000000
   4        -0.00000000
   5         0.00070626
   6        -0.00019743
   7         0.00070736
   8         0.00000000
   9        -0.00000000
  10        -0.00050569
Sym=     3a  
Ene=    -1.1613
Spin= Alpha
Occup=    1.00000
   1         0.03604973
   2        -0.01750918
   3        -0.00000000
   4         0.00000000
   5        -0.03116851
   6         0.00008099
   7        -0.97842828
   8         0.00000000
   9         0.00000000
  10         0.02788731
Sym=     3a  
Ene=    -0.8242
Spin= Beta
Occup=    1.00000
   1         0.04020848
   2        -0.16000721
   3        -0.00000000
   4         0.00000000
   5        -0.10355481
   6         0.00543737
   7        -0.86379160
   8        -0.00000000
   9         0.00000000
  10         0.13796484
Sym=     4a  
Ene=    -0.6108
Spin= Alpha
Occup=    1.00000
   1        -0.05949719
   2         0.13013786
   3         0.00000000
   4         0.00000000
   5         0.13984675
   6        -0.01455994
   7        -0.15279169
   8        -0.00000000
   9         0.00000000
  10        -0.92740311
Sym=     4a  
Ene=    -0.3450
Spin= Beta
Occup=    1.00000
   1         0.00101816
   2         0.92192397
   3         0.00000000
   4         0.00000000
   5        -0.34928932
   6        -0.01391963
   7        -0.29604108
   8         0.00000000
   9         0.00000000
  10        -0.08336702
Sym=     5a  
Ene=    -0.5785
Spin= Alpha
Occup=    1.00000
   1         0.00000000
   2        -0.00000000
   3        -0.01138518
   4         0.06822400
   5        -0.00000000
   6         0.00000000
   7         0.00000000
   8        -0.16159018
   9         0.96830496
  10         0.00000000
Sym=     5a  
Ene=    -0.2738
Spin= Beta
Occup=    1.00000
   1         0.00000000
   2        -0.00000000
   3         0.73766007
   4         0.12310030
   5         0.00000000
   6         0.00000000
   7         0.00000000
   8         0.50572371
   9         0.08439489
  10         0.00000000
Sym=     6a  
Ene=    -0.5495
Spin= Alpha
Occup=    1.00000
   1         0.00000000
   2         0.00000000
   3         0.06861218
   4         0.01144996
   5         0.00000000
   6        -0.00000000
   7        -0.00000000
   8         0.96818941
   9         0.16157090
  10         0.00000000
Sym=     6a  
Ene=     0.0334
Spin= Beta
Occup=    0.00000
   1        -0.00000000
   2        -0.00000000
   3        -0.14202898
   4         0.85108739
   5         0.00000000
   6        -0.00000000
   7        -0.00000000
   8        -0.05654590
   9         0.33884284
  10        -0.00000000
Sym=     7a  
Ene=     0.0842
Spin= Alpha
Occup=    0.00000
   1         0.01820187
   2         0.96365834
   3         0.00000000
   4        -0.00000000
   5        -0.35742677
   6        -0.01334939
   7        -0.16779567
   8        -0.00000000
   9         0.00000000
  10         0.21867289
Sym=     7a  
Ene=     0.0889
Spin= Beta
Occup=    0.00000
   1        -0.02612304
   2         0.09260734
   3        -0.00000000
   4        -0.00000000
   5         0.66259889
   6        -0.05037486
   7        -0.55294904
   8         0.00000000
   9         0.00000000
  10        -0.64784673
Sym=     8a  
Ene=     0.1648
Spin= Alpha
Occup=    0.00000
   1        -0.00000000
   2         0.00000000
   3        -0.16883181
   4         1.01169932
   5        -0.00000000
   6         0.00000000
   7         0.00000000
   8         0.05022365
   9        -0.30095769
  10        -0.00000000
Sym=     8a  
Ene=     0.1716
Spin= Beta
Occup=    0.00000
   1        -0.00000000
   2         0.00000000
   3        -0.69573533
   4        -0.11610392
   5        -0.00000000
   6         0.00000000
   7         0.00000000
   8         0.87888199
   9         0.14666733
  10         0.00000000
Sym=     9a  
Ene=     0.1919
Spin= Alpha
Occup=    0.00000
   1         0.00000000
   2        -0.00000000
   3         1.01167307
   4         0.16882743
   5         0.00000000
   6        -0.00000000
   7        -0.00000000
   8        -0.30132921
   9        -0.05028565
  10         0.00000000
Sym=     9a  
Ene=     0.2762
Spin= Beta
Occup=    0.00000
   1         0.00000000
   2         0.00000000
   3         0.09198680
   4        -0.55121708
   5         0.00000000
   6        -0.00000000
   7         0.00000000
   8        -0.15948782
   9         0.95570683
  10         0.00000000
Sym=    10a  
Ene=     0.3719
Spin= Alpha
Occup=    0.00000
   1         0.06163967
   2         0.64210420
   3        -0.00000000
   4         0.00000000
   5         1.17106966
   6        -0.10325422
   7        -0.80687753
   8         0.00000000
   9        -0.00000000
  10         0.55365796
Sym=    10a  
Ene=     0.4442
Spin= Beta
Occup=    0.00000
   1         0.08083750
   2         0.68851473
   3        -0.00000000
   4         0.00000000
   5         0.97361595
   6        -0.09303292
   7        -0.72131009
   8         0.00000000
   9        -0.00000000
  10         0.87722419
