[Molden Format]
[N_Atoms]
                     2
[Atoms] (AU)
O1          1      8           0.00000000      0.00000000      0.00000000
O2          2      8           0.00000000      0.00000000      1.51178090
[Charge] (Mulliken)
  0.000000000000000E+000
  0.000000000000000E+000
[GTO] (AU)
   1
   s  14
  1.053749500E+05  1.238600013E-04
  1.567924000E+04  5.120100053E-04
  3.534544700E+03  2.152910022E-03
  9.873651600E+02  8.528440089E-03
  3.159787500E+02  3.018049031E-02
  1.116542800E+02  9.099702095E-02
  4.269945100E+01  2.177936423E-01
  1.739559600E+01  3.686245738E-01
  7.438309000E+00  3.366707335E-01
  3.222862000E+00  9.657630101E-02
  1.253877000E+00  2.144520022E-03
  4.951550000E-01  1.194350012E-03
  1.916650000E-01  5.390200056E-04
  6.708300000E-02  2.103400022E-04
   s  14
  1.053749500E+05 -2.815000008E-05
  1.567924000E+04 -1.163000003E-04
  3.534544700E+03 -4.909200013E-04
  9.873651600E+02 -1.946160005E-03
  3.159787500E+02 -7.005300019E-03
  1.116542800E+02 -2.167814006E-02
  4.269945100E+01 -5.641213015E-02
  1.739559600E+01 -1.127053003E-01
  7.438309000E+00 -1.589119704E-01
  3.222862000E+00 -3.355083009E-02
  1.253877000E+00  3.531902810E-01
  4.951550000E-01  5.534199315E-01
  1.916650000E-01  2.301839106E-01
  6.708300000E-02  1.127267003E-02
   p   9
  2.000000000E+02  9.173000030E-04
  4.653336700E+01  7.377140024E-03
  1.462180900E+01  3.483515011E-02
  5.313064000E+00  1.144397004E-01
  2.102525000E+00  2.554966408E-01
  8.502230000E-01  3.722557412E-01
  3.375970000E-01  3.323314911E-01
  1.288920000E-01  1.400847905E-01
  4.511200000E-02  2.395784008E-02
 
   2
   s  14
  1.053749500E+05  1.238600013E-04
  1.567924000E+04  5.120100053E-04
  3.534544700E+03  2.152910022E-03
  9.873651600E+02  8.528440089E-03
  3.159787500E+02  3.018049031E-02
  1.116542800E+02  9.099702095E-02
  4.269945100E+01  2.177936423E-01
  1.739559600E+01  3.686245738E-01
  7.438309000E+00  3.366707335E-01
  3.222862000E+00  9.657630101E-02
  1.253877000E+00  2.144520022E-03
  4.951550000E-01  1.194350012E-03
  1.916650000E-01  5.390200056E-04
  6.708300000E-02  2.103400022E-04
   s  14
  1.053749500E+05 -2.815000008E-05
  1.567924000E+04 -1.163000003E-04
  3.534544700E+03 -4.909200013E-04
  9.873651600E+02 -1.946160005E-03
  3.159787500E+02 -7.005300019E-03
  1.116542800E+02 -2.167814006E-02
  4.269945100E+01 -5.641213015E-02
  1.739559600E+01 -1.127053003E-01
  7.438309000E+00 -1.589119704E-01
  3.222862000E+00 -3.355083009E-02
  1.253877000E+00  3.531902810E-01
  4.951550000E-01  5.534199315E-01
  1.916650000E-01  2.301839106E-01
  6.708300000E-02  1.127267003E-02
   p   9
  2.000000000E+02  9.173000030E-04
  4.653336700E+01  7.377140024E-03
  1.462180900E+01  3.483515011E-02
  5.313064000E+00  1.144397004E-01
  2.102525000E+00  2.554966408E-01
  8.502230000E-01  3.722557412E-01
  3.375970000E-01  3.323314911E-01
  1.288920000E-01  1.400847905E-01
  4.511200000E-02  2.395784008E-02
 
[MO]
Sym=     1a  
Ene=   -20.7330
Spin= Alpha
Occup=    2.00000
   1         0.70581973
   2         0.00420349
   3         0.00000000
   4        -0.00000000
   5         0.00322472
   6         0.70581973
   7         0.00420349
   8        -0.00000000
   9         0.00000000
  10        -0.00322472
Sym=     2a  
Ene=   -20.6810
Spin= Alpha
Occup=    2.00000
   1        -0.70677321
   2         0.00373022
   3        -0.00000000
   4         0.00000000
   5         0.00309081
   6         0.70677321
   7        -0.00373022
   8         0.00000000
   9        -0.00000000
  10         0.00309081
Sym=     3a  
Ene=    -2.0739
Spin= Alpha
Occup=    2.00000
   1        -0.06906897
   2         0.52293864
   3         0.00000000
   4         0.00000000
   5         0.11735667
   6        -0.06906897
   7         0.52293864
   8        -0.00000000
   9        -0.00000000
  10        -0.11735667
Sym=     4a  
Ene=    -1.0094
Spin= Alpha
Occup=    2.00000
   1         0.00908684
   2        -0.54898689
   3        -0.00000000
   4        -0.00000000
   5         0.40180256
   6        -0.00908684
   7         0.54898689
   8        -0.00000000
   9        -0.00000000
  10         0.40180256
Sym=     5a  
Ene=    -0.9264
Spin= Alpha
Occup=    2.00000
   1        -0.00000000
   2        -0.00000000
   3         0.58359608
   4         0.05271479
   5         0.00000000
   6         0.00000000
   7         0.00000000
   8         0.58359608
   9         0.05271479
  10         0.00000000
Sym=     6a  
Ene=    -0.9264
Spin= Alpha
Occup=    2.00000
   1        -0.00000000
   2        -0.00000000
   3        -0.05271479
   4         0.58359608
   5        -0.00000000
   6         0.00000000
   7         0.00000000
   8        -0.05271479
   9         0.58359608
  10        -0.00000000
Sym=     7a  
Ene=    -0.5481
Spin= Alpha
Occup=    2.00000
   1         0.07628701
   2         0.32031327
   3         0.00000000
   4        -0.00000000
   5        -0.72651781
   6         0.07628701
   7         0.32031327
   8        -0.00000000
   9         0.00000000
  10         0.72651781
Sym=     8a  
Ene=    -0.3460
Spin= Alpha
Occup=    1.00000
   1        -0.00000000
   2        -0.00000000
   3         0.63535763
   4        -0.71815671
   5         0.00000000
   6        -0.00000000
   7        -0.00000000
   8        -0.63535763
   9         0.71815671
  10        -0.00000000
Sym=     9a  
Ene=    -0.3460
Spin= Alpha
Occup=    1.00000
   1        -0.00000000
   2        -0.00000000
   3        -0.71815671
   4        -0.63535763
   5        -0.00000000
   6         0.00000000
   7         0.00000000
   8         0.71815671
   9         0.63535763
  10        -0.00000000
Sym=    10a  
Ene=    -0.0896
Spin= Alpha
Occup=    0.00000
   1         0.35210966
   2         1.88739785
   3        -0.00000000
   4        -0.00000000
   5         1.31487646
   6        -0.35210966
   7        -1.88739785
   8         0.00000000
   9         0.00000000
  10         1.31487646
