[Molden Format]
[N_Atoms]
                     2
[Atoms] (AU)
O1          1      8           0.00000000      0.00000000      0.00000000
O2          2      8           0.00000000      0.00000000      1.51178090
[Charge] (Mulliken)
   1.00000000000066     
  0.999999999999305     
[GTO] (AU)
   1
   s  14
  1.053749500E+05  1.238600013E-04
  1.567924000E+04  5.120100053E-04
  3.534544700E+03  2.152910022E-03
  9.873651600E+02  8.528440089E-03
  3.159787500E+02  3.018049031E-02
  1.116542800E+02  9.099702095E-02
  4.269945100E+01  2.177936423E-01
  1.739559600E+01  3.686245738E-01
  7.438309000E+00  3.366707335E-01
  3.222862000E+00  9.657630101E-02
  1.253877000E+00  2.144520022E-03
  4.951550000E-01  1.194350012E-03
  1.916650000E-01  5.390200056E-04
  6.708300000E-02  2.103400022E-04
   s  14
  1.053749500E+05 -2.815000008E-05
  1.567924000E+04 -1.163000003E-04
  3.534544700E+03 -4.909200013E-04
  9.873651600E+02 -1.946160005E-03
  3.159787500E+02 -7.005300019E-03
  1.116542800E+02 -2.167814006E-02
  4.269945100E+01 -5.641213015E-02
  1.739559600E+01 -1.127053003E-01
  7.438309000E+00 -1.589119704E-01
  3.222862000E+00 -3.355083009E-02
  1.253877000E+00  3.531902810E-01
  4.951550000E-01  5.534199315E-01
  1.916650000E-01  2.301839106E-01
  6.708300000E-02  1.127267003E-02
   p   9
  2.000000000E+02  9.173000030E-04
  4.653336700E+01  7.377140024E-03
  1.462180900E+01  3.483515011E-02
  5.313064000E+00  1.144397004E-01
  2.102525000E+00  2.554966408E-01
  8.502230000E-01  3.722557412E-01
  3.375970000E-01  3.323314911E-01
  1.288920000E-01  1.400847905E-01
  4.511200000E-02  2.395784008E-02
 
   2
   s  14
  1.053749500E+05  1.238600013E-04
  1.567924000E+04  5.120100053E-04
  3.534544700E+03  2.152910022E-03
  9.873651600E+02  8.528440089E-03
  3.159787500E+02  3.018049031E-02
  1.116542800E+02  9.099702095E-02
  4.269945100E+01  2.177936423E-01
  1.739559600E+01  3.686245738E-01
  7.438309000E+00  3.366707335E-01
  3.222862000E+00  9.657630101E-02
  1.253877000E+00  2.144520022E-03
  4.951550000E-01  1.194350012E-03
  1.916650000E-01  5.390200056E-04
  6.708300000E-02  2.103400022E-04
   s  14
  1.053749500E+05 -2.815000008E-05
  1.567924000E+04 -1.163000003E-04
  3.534544700E+03 -4.909200013E-04
  9.873651600E+02 -1.946160005E-03
  3.159787500E+02 -7.005300019E-03
  1.116542800E+02 -2.167814006E-02
  4.269945100E+01 -5.641213015E-02
  1.739559600E+01 -1.127053003E-01
  7.438309000E+00 -1.589119704E-01
  3.222862000E+00 -3.355083009E-02
  1.253877000E+00  3.531902810E-01
  4.951550000E-01  5.534199315E-01
  1.916650000E-01  2.301839106E-01
  6.708300000E-02  1.127267003E-02
   p   9
  2.000000000E+02  9.173000030E-04
  4.653336700E+01  7.377140024E-03
  1.462180900E+01  3.483515011E-02
  5.313064000E+00  1.144397004E-01
  2.102525000E+00  2.554966408E-01
  8.502230000E-01  3.722557412E-01
  3.375970000E-01  3.323314911E-01
  1.288920000E-01  1.400847905E-01
  4.511200000E-02  2.395784008E-02
 
[MO]
Sym=     1a  
Ene=   -22.8900
Spin= Alpha
Occup=    2.00000
   1         0.70618347
   2        -0.00175782
   3        -0.00000000
   4         0.00000000
   5         0.00450345
   6         0.70618347
   7        -0.00175782
   8        -0.00000000
   9         0.00000000
  10        -0.00450345
Sym=     2a  
Ene=   -22.8710
Spin= Alpha
Occup=    2.00000
   1        -0.70787426
   2         0.00806099
   3        -0.00000000
   4         0.00000000
   5        -0.00816545
   6         0.70787426
   7        -0.00806099
   8         0.00000000
   9         0.00000000
  10        -0.00816545
Sym=     3a  
Ene=    -3.7402
Spin= Alpha
Occup=    2.00000
   1         0.08728566
   2        -0.36537985
   3        -0.00000000
   4        -0.00000000
   5        -0.38035690
   6         0.08728566
   7        -0.36537985
   8         0.00000000
   9        -0.00000000
  10         0.38035690
Sym=     4a  
Ene=    -2.2756
Spin= Alpha
Occup=    2.00000
   1        -0.00000000
   2        -0.00000000
   3         0.31270126
   4         0.49556146
   5         0.00000000
   6        -0.00000000
   7        -0.00000000
   8         0.31270126
   9         0.49556146
  10        -0.00000000
Sym=     5a  
Ene=    -2.2752
Spin= Alpha
Occup=    2.00000
   1         0.00000000
   2         0.00000000
   3         0.49556146
   4        -0.31270126
   5        -0.00000000
   6        -0.00000000
   7        -0.00000000
   8         0.49556146
   9        -0.31270126
  10         0.00000000
Sym=     6a  
Ene=    -2.1426
Spin= Alpha
Occup=    2.00000
   1         0.04957666
   2         0.49252162
   3         0.00000000
   4         0.00000000
   5        -0.63001545
   6         0.04957666
   7         0.49252162
   8         0.00000000
   9         0.00000000
  10         0.63001545
Sym=     7a  
Ene=    -2.2438
Spin= Alpha
Occup=    1.98894
   1        -0.04770821
   2        -0.78155271
   3         0.00000000
   4        -0.00000000
   5         0.23345713
   6         0.04770821
   7         0.78155271
   8        -0.00000000
   9        -0.00000000
  10         0.23345713
Sym=     8a  
Ene=    -0.0000
Spin= Alpha
Occup=    0.01106
   1        -0.00000000
   2        -0.00000000
   3        -0.51169560
   4        -0.81092292
   5         0.00000000
   6         0.00000000
   7         0.00000000
   8         0.51169560
   9         0.81092292
  10         0.00000000
Sym=     9a  
Ene=    -1.1118
Spin= Alpha
Occup=    0.00000
   1         0.00000000
   2         0.00000000
   3        -0.81092292
   4         0.51169560
   5        -0.00000000
   6        -0.00000000
   7        -0.00000000
   8         0.81092292
   9        -0.51169560
  10         0.00000000
Sym=    10a  
Ene=     0.3255
Spin= Alpha
Occup=    0.00000
   1         0.34674214
   2         1.80354693
   3        -0.00000000
   4        -0.00000000
   5         1.35491183
   6        -0.34674214
   7        -1.80354693
   8        -0.00000000
   9         0.00000000
  10         1.35491183
