[Molden Format]
[N_Atoms]
                     2
[Atoms] (AU)
O1          1      8           0.00000000      0.00000000      0.00000000
O2          2      8           0.00000000      0.00000000      1.51178090
[Charge] (Mulliken)
  2.637889906509372E-013
 -2.771116669464391E-013
[GTO] (AU)
   1
   s  14
  1.053749500E+05  1.238600013E-04
  1.567924000E+04  5.120100053E-04
  3.534544700E+03  2.152910022E-03
  9.873651600E+02  8.528440089E-03
  3.159787500E+02  3.018049031E-02
  1.116542800E+02  9.099702095E-02
  4.269945100E+01  2.177936423E-01
  1.739559600E+01  3.686245738E-01
  7.438309000E+00  3.366707335E-01
  3.222862000E+00  9.657630101E-02
  1.253877000E+00  2.144520022E-03
  4.951550000E-01  1.194350012E-03
  1.916650000E-01  5.390200056E-04
  6.708300000E-02  2.103400022E-04
   s  14
  1.053749500E+05 -2.815000008E-05
  1.567924000E+04 -1.163000003E-04
  3.534544700E+03 -4.909200013E-04
  9.873651600E+02 -1.946160005E-03
  3.159787500E+02 -7.005300019E-03
  1.116542800E+02 -2.167814006E-02
  4.269945100E+01 -5.641213015E-02
  1.739559600E+01 -1.127053003E-01
  7.438309000E+00 -1.589119704E-01
  3.222862000E+00 -3.355083009E-02
  1.253877000E+00  3.531902810E-01
  4.951550000E-01  5.534199315E-01
  1.916650000E-01  2.301839106E-01
  6.708300000E-02  1.127267003E-02
   p   9
  2.000000000E+02  9.173000030E-04
  4.653336700E+01  7.377140024E-03
  1.462180900E+01  3.483515011E-02
  5.313064000E+00  1.144397004E-01
  2.102525000E+00  2.554966408E-01
  8.502230000E-01  3.722557412E-01
  3.375970000E-01  3.323314911E-01
  1.288920000E-01  1.400847905E-01
  4.511200000E-02  2.395784008E-02
 
   2
   s  14
  1.053749500E+05  1.238600013E-04
  1.567924000E+04  5.120100053E-04
  3.534544700E+03  2.152910022E-03
  9.873651600E+02  8.528440089E-03
  3.159787500E+02  3.018049031E-02
  1.116542800E+02  9.099702095E-02
  4.269945100E+01  2.177936423E-01
  1.739559600E+01  3.686245738E-01
  7.438309000E+00  3.366707335E-01
  3.222862000E+00  9.657630101E-02
  1.253877000E+00  2.144520022E-03
  4.951550000E-01  1.194350012E-03
  1.916650000E-01  5.390200056E-04
  6.708300000E-02  2.103400022E-04
   s  14
  1.053749500E+05 -2.815000008E-05
  1.567924000E+04 -1.163000003E-04
  3.534544700E+03 -4.909200013E-04
  9.873651600E+02 -1.946160005E-03
  3.159787500E+02 -7.005300019E-03
  1.116542800E+02 -2.167814006E-02
  4.269945100E+01 -5.641213015E-02
  1.739559600E+01 -1.127053003E-01
  7.438309000E+00 -1.589119704E-01
  3.222862000E+00 -3.355083009E-02
  1.253877000E+00  3.531902810E-01
  4.951550000E-01  5.534199315E-01
  1.916650000E-01  2.301839106E-01
  6.708300000E-02  1.127267003E-02
   p   9
  2.000000000E+02  9.173000030E-04
  4.653336700E+01  7.377140024E-03
  1.462180900E+01  3.483515011E-02
  5.313064000E+00  1.144397004E-01
  2.102525000E+00  2.554966408E-01
  8.502230000E-01  3.722557412E-01
  3.375970000E-01  3.323314911E-01
  1.288920000E-01  1.400847905E-01
  4.511200000E-02  2.395784008E-02
 
[MO]
Sym=     1a  
Ene=   -21.1020
Spin= Alpha
Occup=    1.00000
   1         0.70608789
   2        -0.00038309
   3         0.00000000
   4         0.00000000
   5         0.00433042
   6         0.70608789
   7        -0.00038309
   8        -0.00000000
   9         0.00000000
  10        -0.00433042
Sym=     1a  
Ene=   -21.1020
Spin= Beta
Occup=    1.00000
   1         0.70608789
   2        -0.00038309
   3         0.00000000
   4         0.00000000
   5         0.00433042
   6         0.70608789
   7        -0.00038309
   8        -0.00000000
   9         0.00000000
  10        -0.00433042
Sym=     2a  
Ene=   -21.0890
Spin= Alpha
Occup=    1.00000
   1        -0.70904811
   2        -0.00742752
   3         0.00000000
   4        -0.00000000
   5        -0.00615470
   6         0.70904811
   7         0.00742752
   8        -0.00000000
   9         0.00000000
  10        -0.00615470
Sym=     2a  
Ene=   -21.0890
Spin= Beta
Occup=    1.00000
   1        -0.70904811
   2        -0.00742752
   3         0.00000000
   4        -0.00000000
   5        -0.00615470
   6         0.70904811
   7         0.00742752
   8        -0.00000000
   9         0.00000000
  10        -0.00615470
Sym=     3a  
Ene=    -2.3397
Spin= Alpha
Occup=    1.00000
   1        -0.08584268
   2         0.39153994
   3        -0.00000000
   4         0.00000000
   5         0.34564183
   6        -0.08584268
   7         0.39153994
   8        -0.00000000
   9         0.00000000
  10        -0.34564183
Sym=     3a  
Ene=    -2.3397
Spin= Beta
Occup=    1.00000
   1        -0.08584268
   2         0.39153994
   3        -0.00000000
   4         0.00000000
   5         0.34564183
   6        -0.08584268
   7         0.39153994
   8        -0.00000000
   9         0.00000000
  10        -0.34564183
Sym=     4a  
Ene=    -1.1410
Spin= Alpha
Occup=    1.00000
   1        -0.00000000
   2        -0.00000000
   3        -0.38827211
   4         0.43887129
   5         0.00000000
   6        -0.00000000
   7        -0.00000000
   8        -0.38827211
   9         0.43887129
  10        -0.00000000
Sym=     4a  
Ene=    -1.1410
Spin= Beta
Occup=    1.00000
   1        -0.00000000
   2        -0.00000000
   3        -0.38827211
   4         0.43887129
   5         0.00000000
   6        -0.00000000
   7        -0.00000000
   8        -0.38827211
   9         0.43887129
  10        -0.00000000
Sym=     5a  
Ene=    -1.0732
Spin= Alpha
Occup=    1.00000
   1        -0.00000000
   2        -0.00000000
   3         0.43887129
   4         0.38827211
   5         0.00000000
   6         0.00000000
   7         0.00000000
   8         0.43887129
   9         0.38827211
  10         0.00000000
Sym=     5a  
Ene=    -1.0732
Spin= Beta
Occup=    1.00000
   1        -0.00000000
   2        -0.00000000
   3         0.43887129
   4         0.38827211
   5         0.00000000
   6         0.00000000
   7         0.00000000
   8         0.43887129
   9         0.38827211
  10         0.00000000
Sym=     6a  
Ene=    -1.0675
Spin= Alpha
Occup=    1.00000
   1        -0.02108436
   2        -0.70358913
   3        -0.00000000
   4        -0.00000000
   5         0.29139650
   6         0.02108436
   7         0.70358913
   8        -0.00000000
   9        -0.00000000
  10         0.29139650
Sym=     6a  
Ene=    -1.0675
Spin= Beta
Occup=    1.00000
   1        -0.02108436
   2        -0.70358913
   3        -0.00000000
   4        -0.00000000
   5         0.29139650
   6         0.02108436
   7         0.70358913
   8        -0.00000000
   9        -0.00000000
  10         0.29139650
Sym=     7a  
Ene=    -0.9244
Spin= Alpha
Occup=    1.00000
   1         0.05331655
   2         0.47199513
   3         0.00000000
   4         0.00000000
   5        -0.64971077
   6         0.05331655
   7         0.47199513
   8         0.00000000
   9         0.00000000
  10         0.64971077
Sym=     7a  
Ene=    -0.9244
Spin= Beta
Occup=    1.00000
   1         0.05331655
   2         0.47199513
   3         0.00000000
   4         0.00000000
   5        -0.64971077
   6         0.05331655
   7         0.47199513
   8         0.00000000
   9         0.00000000
  10         0.64971077
Sym=     8a  
Ene=    -0.3952
Spin= Alpha
Occup=    1.00000
   1        -0.00000000
   2         0.00000000
   3         0.63535763
   4        -0.71815671
   5        -0.00000000
   6        -0.00000000
   7        -0.00000000
   8        -0.63535763
   9         0.71815671
  10        -0.00000000
Sym=     8a  
Ene=    -0.3952
Spin= Beta
Occup=    1.00000
   1        -0.00000000
   2         0.00000000
   3         0.63535763
   4        -0.71815671
   5        -0.00000000
   6        -0.00000000
   7        -0.00000000
   8        -0.63535763
   9         0.71815671
  10        -0.00000000
Sym=     9a  
Ene=     0.1901
Spin= Alpha
Occup=    0.00000
   1        -0.00000000
   2        -0.00000000
   3        -0.71815671
   4        -0.63535763
   5         0.00000000
   6        -0.00000000
   7        -0.00000000
   8         0.71815671
   9         0.63535763
  10        -0.00000000
Sym=     9a  
Ene=     0.1901
Spin= Beta
Occup=    0.00000
   1        -0.00000000
   2        -0.00000000
   3        -0.71815671
   4        -0.63535763
   5         0.00000000
   6        -0.00000000
   7        -0.00000000
   8         0.71815671
   9         0.63535763
  10        -0.00000000
Sym=    10a  
Ene=     1.7090
Spin= Alpha
Occup=    0.00000
   1         0.34698469
   2         1.83536872
   3         0.00000000
   4        -0.00000000
   5         1.34365366
   6        -0.34698469
   7        -1.83536872
   8        -0.00000000
   9        -0.00000000
  10         1.34365366
Sym=    10a  
Ene=     1.7090
Spin= Beta
Occup=    0.00000
   1         0.34698469
   2         1.83536872
   3         0.00000000
   4        -0.00000000
   5         1.34365366
   6        -0.34698469
   7        -1.83536872
   8        -0.00000000
   9        -0.00000000
  10         1.34365366
