   This run of MOLCAS is using the pymolcas driver

                             OPE
                             OPE          NMOL  CASOP  ENMOLC A   SO
                 OPE        NMOLC        AS  OP EN  MO LC     AS  OP
                OPENM       OL CA        SO  PE NM  OL CA     SOP EN
                OP EN      MO   LC       AS  OP ENMOL  CASO   PENMOL
                OP  EN     MO   LC       AS  OP EN     MO     LC ASO
               OP   E  NMOL  C  AS       OP  EN MO     LC     AS  OP
               OP  E   NMO   LC AS        OPEN  MO     LCASOP EN   M
               O  PEN   MO  LCA  SO
            OPE   NMO   L   CAS    OP
        OPENMOL  CASOP     ENMOL   CASOPE
     OPENMOLCA   SOPENMOLCASOPEN   MOLCASOPE
    OPENMOLCAS   OP           EN   MOL    CAS
    OPENMOLCAS       OP  ENM        O     LCA
    OPENMOLCAS    OPEN  MOLCASO     P  E  NMO
    OPENMOLCAS     OP               E  N  MOL
    OPENMOLCA   SO           PENM   O  L  CAS    OPEN    MO    LCAS
    OPENMOLCA   SOP           ENM   O  L  CAS   OP  EN  MOLC  AS   O
    OPENMOLCA   SOPE           NM      O  LCA   S      OP  EN MO
    OPENMOLC                AS         O  PEN   M      OL  CA  SOPE
    OPENMO        LCASOPE  NMOL        C  ASO   P      ENMOLC     AS
    OPE     NMO      LCA  SO     P     E   NM   OL  CA SO  PE N   MO
          OPENMOLCA            SOPE   NMO        LCAS  O    P  ENMO
     OPENMOLCASOPENMOLCASOPENMOLCASOPENMOLCA
        OPENMOLCASOPENMOLCASOPENMOLCASOPE
            OPENMOLCASOPENMOLCASOPENM
               OPENMOLCASOPENMOLCA        version: f37762c57
                   OPENMOLCASO
                       OPE                tag:

 OpenMolcas is free software; you can redistribute it and/or modify it
 under the terms of the GNU Lesser General Public License version 2.1.
 OpenMolcas is distributed in the hope that it will be useful, but it
 is provided "as is" and without any express or implied warranties.
 For more details see the full text of the license in the file
 LICENSE or in <http://www.gnu.org/licenses/>.

                 Copyright (C) The OpenMolcas Authors
           For the author list and the recommended citation,
                   consult the file CONTRIBUTORS.md

           *************************************************
           * pymolcas version py2.28                       *
           *   build c4a6d18ded8cb6cad61d2372a9abd97c      *
           *   (after the EMIL interpreter by V. Veryazov) *
           *************************************************

configuration info
------------------
C Compiler ID: Intel
C flags: -std=gnu99 -gcc-sys
Fortran Compiler ID: IntelLLVM
Fortran flags: -standard-semantics -fltconsistency -fpp -i8 -heap-arrays
Definitions: _MOLCAS_;_I8_;_LINUX_
Parallel: OFF (GA=OFF)


   -------------------------------------------------------------------------------------------
  |
  |              Project: ozone_117.50
  |       Submitted from: /home/grierjones/DDCASPT2/ozone/multistate/ANO-RCC-VTZP/ozone_117.50
  |         Scratch area: /tmp/ozone_117.50
  |      Save outputs to: /home/grierjones/DDCASPT2/ozone/multistate/ANO-RCC-VTZP/ozone_117.50
  |               Molcas: /home/grierjones/Test/build
  |
  | Scratch area is empty
  |
  |       MOLCAS_DRIVER = /usr/local/pymolcas
  | MOLCAS_KEEP_WORKDIR = NO
  |  MOLCAS_NEW_WORKDIR = YES
  |       MOLCAS_NPROCS = 1
  |        MOLCAS_PRINT = NORMAL
  |       MOLCAS_SOURCE = /home/grierjones/Test
  |    MOLCAS_STRUCTURE = 0
  |
   -------------------------------------------------------------------------------------------

++ ---------   Input file   ---------

&GATEWAY
coord=ozone_117.50.xyz
Basis = ANO-RCC-VTZP
Group = nosymm
End of Input

&SEWARD
End of Input

&SCF
FileOrb
/home/grierjones/DDCASPT2/ozone/multistate/ANO-RCC-VTZP/ozone_117.25/ozone_117.25.ScfOrb

>>> COPY $WorkDir/ozone_117.50.scf.h5 $CurrDir/

&RASSCF
Title= RASSCF
FileOrb
/home/grierjones/DDCASPT2/ozone/multistate/ANO-RCC-VTZP/ozone_117.25/ozone_117.25.RasOrb
CIROOT
3 3 1
NACTEL
4 0 0
Inactive
10
RAS2
3
Symmetry
1
Spin
1
orblisting
all

>>> COPY $WorkDir/ozone_117.50.rasscf.h5 $CurrDir/

>>> COPY $WorkDir/GMJ_Fock_MO.csv $CurrDir/ozone_117.50.GMJ_Fock_MO.csv

&MOTRA
Frozen=0
LUMORB

>>> COPY $WorkDir/GMJ_one_int_indx.csv $CurrDir/ozone_117.50.GMJ_one_int_indx.csv

>>> COPY $WorkDir/GMJ_one_int.csv $CurrDir/ozone_117.50.GMJ_one_int.csv

>>> COPY $WorkDir/GMJ_two_int_indx.csv $CurrDir/ozone_117.50.GMJ_two_int_indx.csv

>>> COPY $WorkDir/GMJ_two_int.csv $CurrDir/ozone_117.50.GMJ_two_int.csv

&CASPT2
Frozen
0

MAXITER
50

>>> FOREACH k IN (1,2,3)

  >>> FOREACH i IN (B,E,F,G,H)

    >>> FOREACH j IN (P,M)

      >>> IF (-FILE GMJ_e2_${i}_${j}_${k}_.csv)

        >>> COPY $WorkDir/GMJ_RHS_${i}_${j}_${k}_.csv $CurrDir/GMJ_RHS_${i}_${j}_${k}_.csv

        >>> COPY $WorkDir/GMJ_IVECW_${i}_${j}_${k}_.csv $CurrDir/GMJ_IVECW_${i}_${j}_${k}_.csv

        >>> COPY $WorkDir/GMJ_IVECX_${i}_${j}_${k}_.csv $CurrDir/GMJ_IVECX_${i}_${j}_${k}_.csv

        >>> COPY $WorkDir/GMJ_IVECC2_${i}_${j}_${k}_.csv $CurrDir/GMJ_IVECC2_${i}_${j}_${k}_.csv

        >>> COPY $WorkDir/GMJ_e2_${i}_${j}_${k}_.csv $CurrDir/GMJ_e2_${i}_${j}_${k}_.csv

      >>> END IF

    >>> END FOREACH

  >>> END FOREACH

>>> END FOREACH

>>> FOREACH j IN (1,2,3)

  >>> FOREACH i IN (A,C,D)

    >>> IF (-FILE GMJ_e2_${i}_${j}_.csv)

      >>> COPY $WorkDir/GMJ_RHS_${i}_${j}_.csv $CurrDir/GMJ_RHS_${i}_${j}_.csv

      >>> COPY $WorkDir/GMJ_IVECW_${i}_${j}_.csv $CurrDir/GMJ_IVECW_${i}_${j}_.csv

      >>> COPY $WorkDir/GMJ_IVECX_${i}_${j}_.csv $CurrDir/GMJ_IVECX_${i}_${j}_.csv

      >>> COPY $WorkDir/GMJ_IVECC2_${i}_${j}_.csv $CurrDir/GMJ_IVECC2_${i}_${j}_.csv

      >>> COPY $WorkDir/GMJ_e2_${i}_${j}_.csv $CurrDir/GMJ_e2_${i}_${j}_.csv

    >>> END IF

  >>> END FOREACH

>>> END FOREACH

-- ----------------------------------

--- Start Module: gateway at Fri Apr 11 18:39:14 2025 ---
 
()()()()()()()()()()()()()()()()()()()()()()()()()()()()()()()()()()()()()()()()()()()()()()()()()()

                                              &GATEWAY

                                   only a single process is used
                       available to each process: 2.0 GB of memory, 1 thread?
()()()()()()()()()()()()()()()()()()()()()()()()()()()()()()()()()()()()()()()()()()()()()()()()()()
 
 
++    Symmetry information:
      ---------------------
 
                    Character Table for C1 
 
                             E  
                    a        1  x, y, xy, Rz, z, xz, Ry, yz, Rx, I
--
 
 
++    Basis set information:
      ----------------------
 
 
      Basis set label: O.ANO-RCC...4S3P2D1F.
 
      Electronic valence basis set:
      ------------------
      Associated Effective Charge   8.000000 au
      Associated Actual Charge      8.000000 au
      Nuclear Model: Point charge
 
      Shell  nPrim  nBasis  Cartesian Spherical Contaminant
         s      14       4        X                  
         p       9       3        X                  
         d       4       2                 X         
         f       3       1                 X         
--
 
 
++    Molecular structure info:
      -------------------------
 
                    ************************************************ 
                    **** Cartesian Coordinates / Bohr, Angstrom **** 
                    ************************************************ 
 
     Center  Label                x              y              z                     x              y              z
        1      O1               1.252873       2.064671       0.000000              0.662992       1.092577       0.000000
        2      O2               0.000000       0.000000       0.000000              0.000000       0.000000       0.000000
        3      O3               1.252873      -2.064671       0.000000              0.662992      -1.092577       0.000000
 
                    *************************************** 
                    *    InterNuclear Distances / Bohr    * 
                    *************************************** 
 
               1 O1            2 O2            3 O3    
    1 O1       0.000000
    2 O2       2.415069        0.000000
    3 O3       4.129343        2.415069        0.000000
 
                    ******************************************* 
                    *    InterNuclear Distances / Angstrom    * 
                    ******************************************* 
 
               1 O1            2 O2            3 O3    
    1 O1       0.000000
    2 O2       1.278000        0.000000
    3 O3       2.185154        1.278000        0.000000
 
                    ************************************** 
                    *    Valence Bond Angles / Degree    * 
                    ************************************** 
                          Atom centers                 Phi
                      1 O1       2 O2       3 O3       117.50
--
 
 
            Nuclear Potential Energy             68.49938745 au
 
--- Stop Module: gateway at Fri Apr 11 18:39:14 2025 /rc=_RC_ALL_IS_WELL_ ---
*** files: xmldump
    saved to directory /home/grierjones/DDCASPT2/ozone/multistate/ANO-RCC-VTZP/ozone_117.50

--- Start Module: seward at Fri Apr 11 18:39:14 2025 ---
 
()()()()()()()()()()()()()()()()()()()()()()()()()()()()()()()()()()()()()()()()()()()()()()()()()()

                                              &SEWARD

                                   only a single process is used
                       available to each process: 2.0 GB of memory, 1 thread?
()()()()()()()()()()()()()()()()()()()()()()()()()()()()()()()()()()()()()()()()()()()()()()()()()()
 
               SEWARD will generate:
                  Multipole Moment integrals up to order  2
                  Kinetic Energy integrals
                  Nuclear Attraction integrals (point charge)
                  One-Electron Hamiltonian integrals
                  Velocity integrals
                  Relativistic Douglas-Kroll-Hess integrals:
                    - Parametrization         : EXP
                    - DKH order of Hamiltonian: 2
                    - DKH order of Properties : 0
                         - multipole moment operators
                         - electric potential operators
                         - contact operators
                  Atomic mean-field integrals
                  Two-Electron Repulsion integrals
 
                   Integrals are discarded if absolute value <: 0.10E-13
                   Integral cutoff threshold is set to       <: 0.10E-15
 
            Nuclear Potential Energy             68.49938745 au
 
 
      Basis set specifications :
      Symmetry species         a  
      Basis functions           90
 
 
  Input file to MOLDEN was generated!
 
forrtl: warning (525): IEEE_DIVIDE_BY_ZERO is signaling
forrtl: warning (526): IEEE_INVALID is signaling
forrtl: warning (528): IEEE_UNDERFLOW is signaling
--- Stop Module: seward at Fri Apr 11 18:39:17 2025 /rc=_RC_ALL_IS_WELL_ ---
*** files: ozone_117.50.GssOrb ozone_117.50.guessorb.h5 ozone_117.50.guessorb.molden xmldump
    saved to directory /home/grierjones/DDCASPT2/ozone/multistate/ANO-RCC-VTZP/ozone_117.50
--- Module seward spent 2 seconds ---

*** symbolic link created: INPORB -> ozone_117.50.GssOrb
--- Start Module: scf at Fri Apr 11 18:39:17 2025 ---
 
()()()()()()()()()()()()()()()()()()()()()()()()()()()()()()()()()()()()()()()()()()()()()()()()()()

                                                &SCF

                                   only a single process is used
                       available to each process: 2.0 GB of memory, 1 thread?
()()()()()()()()()()()()()()()()()()()()()()()()()()()()()()()()()()()()()()()()()()()()()()()()()()
 
++    Input section:
      --------------
 
      Header of the integral files:
      
       Integrals generated by seward 4.2.0  , Fri Apr 11 18:39:14 2025
 
 
      Cartesian coordinates in Angstrom:
      -----------------------------------------------------
      No.  Label        X            Y            Z        
      -----------------------------------------------------
       1   O1         0.66299200   1.09257700   0.00000000
       2   O2         0.00000000   0.00000000   0.00000000
       3   O3         0.66299200  -1.09257700   0.00000000
      -----------------------------------------------------
      Nuclear repulsion energy =   68.49938745
--
 
++    Orbital specifications:
      -----------------------
 
      Symmetry species               1
                                     a
      Frozen orbitals                0
      Occupied orbitals             12
      Secondary orbitals            78
      Deleted orbitals               0
      Total number of orbitals      90
      Number of basis functions     90
--
 
      Molecular charge                           0.000
 
++    Optimization specifications:
      ----------------------------
 
      SCF Algorithm: Conventional
      Minimized density differences are used
      Number of density matrices in core                5
      Maximum number of NDDO SCF iterations           400
      Maximum number of HF SCF iterations             400
      Threshold for SCF energy change            0.10E-08
      Threshold for density matrix               0.10E-03
      Threshold for Fock matrix                  0.15E-03
      Threshold for linear dependence            0.10E-08
      Threshold at which DIIS is turned on       0.15E+00
      Threshold at which QNR/C2DIIS is turned on 0.75E-01
      Threshold for Norm(delta) (QNR/C2DIIS)     0.20E-04
      DIIS extrapolation of the SCF procedure
      All orbitals punched on: SCFORB
--
 
      Input vectors read from INPORB
      Orbital file label: * SCF orbitals
 
 
++ Convergence information
                                   SCF        iterations: Energy and convergence statistics
 
Iter     Tot. SCF        One-elec.       Two-elec.     Energy      Max Dij or  Max Fij      DNorm      TNorm      AccCon     Time
         Energy          Energy          Energy        Change      Delta Norm                                                in Sec.
   1  -224.513606887  -444.652384453   151.639390117   0.00E+00    0.95E-03*   0.48E-03*    0.75E+01   0.11E+03   None         0.
   2  -224.513612235  -444.652117759   151.639118075  -0.53E-05*   0.57E-03*   0.29E-03*    0.71E-02   0.11E+03   EDIIS        0.
   3  -224.513613326  -444.652806945   151.639806171  -0.11E-05*   0.51E-03*   0.28E-03*    0.13E-02   0.11E+03   c2DIIS       0.
   4  -224.513613624  -444.651766186   151.638765113  -0.30E-06*   0.38E-03*   0.18E-03*    0.14E-02   0.11E+03   QNRc2DIIS    0.
   5  -224.513613632  -444.653324378   151.640323297  -0.77E-08*   0.19E-03*   0.19E-03*    0.47E-03   0.11E+03   QNRc2DIIS    0.
   6  -224.513613813  -444.652549624   151.639548362  -0.18E-06*   0.80E-04*   0.18E-04     0.45E-04   0.11E+03   QNRc2DIIS    0.
   7  -224.513613819  -444.652528278   151.639527010  -0.57E-08*   0.31E-05    0.84E-06     0.51E-04   0.11E+03   QNRc2DIIS    0.
   8  -224.513613819  -444.652538495   151.639537227  -0.12E-10    0.93E-06    0.62E-06     0.39E-03   0.11E+03   QNRc2DIIS    0.
 
       Convergence after  8 Macro Iterations
--
 
 *****************************************************************************************************************************
 *                                                                                                                           *
 *                                             SCF/KS-DFT Program, Final results                                             *
 *                                                                                                                           *
 *                                                                                                                           *
 *                                                                                                                           *
 *                                                       Final Results                                                       *
 *                                                                                                                           *
 *****************************************************************************************************************************
 
::    Total SCF energy                               -224.5136138188
      One-electron energy                            -444.6525384946
      Two-electron energy                             151.6395372268
      Nuclear repulsion energy                         68.4993874491
      Kinetic energy (interpolated)                   225.0452473121
      Virial theorem                                    0.9976376595
      Total spin, S(S+1)                                0.0000000000
      Total spin, S                                     0.0000000000
      Max non-diagonal density matrix element           0.0000013008
      Max non-diagonal Fock matrix element              0.0000003315
 
 
      All orbitals with orbital energies smaller than  E(LUMO)+0.5 are printed
 
++    Molecular orbitals:
      -------------------
 
      Title: SCF orbitals

      Molecular orbitals for symmetry species 1: a  
 
          Orbital            1         2         3         4         5         6         7         8         9        10    
          Energy          -20.9347  -20.7265  -20.7264   -1.7483   -1.4326   -1.0975   -0.8316   -0.8002   -0.7799   -0.5667
          Occ. No.          2.0000    2.0000    2.0000    2.0000    2.0000    2.0000    2.0000    2.0000    2.0000    2.0000
 
        1 O1     1s         0.0022   -0.6840    0.7281   -0.0135    0.0117    0.0096   -0.0125   -0.0230   -0.0000    0.0062
        2 O1     2s         0.0036    0.0048   -0.0055    0.3348   -0.5732    0.5891   -0.2670   -0.4279    0.0000    0.0480
        3 O1     3s         0.0021    0.0035   -0.0038   -0.0101    0.0190    0.0163   -0.0255   -0.0516   -0.0000    0.0171
        4 O1     4s         0.0004    0.0007   -0.0007   -0.0007    0.0041    0.0026   -0.0050   -0.0110   -0.0000    0.0041
        5 O1     2px       -0.0010   -0.0013    0.0013   -0.0541    0.0637    0.1056    0.1400   -0.3300    0.0000   -0.5303
        6 O1     3px       -0.0007   -0.0014    0.0013    0.0122   -0.0088   -0.0175   -0.0058    0.0302    0.0000   -0.0133
        7 O1     4px        0.0001    0.0007   -0.0008    0.0025   -0.0001    0.0008   -0.0002    0.0022    0.0000    0.0032
        8 O1     2py       -0.0021   -0.0019    0.0023   -0.1087    0.0662    0.0830   -0.3516   -0.2535   -0.0000    0.5018
        9 O1     3py       -0.0012   -0.0020    0.0023    0.0153   -0.0142   -0.0140    0.0354    0.0363    0.0000   -0.0026
       10 O1     4py        0.0005    0.0012   -0.0014    0.0008   -0.0036    0.0011    0.0035    0.0030    0.0000   -0.0035
       11 O1     2pz       -0.0000    0.0000   -0.0000   -0.0000    0.0000    0.0000   -0.0000    0.0000    0.3731    0.0000
       12 O1     3pz        0.0000    0.0000   -0.0000    0.0000    0.0000   -0.0000    0.0000   -0.0000   -0.0187   -0.0000
       13 O1     4pz       -0.0000   -0.0000   -0.0000    0.0000    0.0000   -0.0000    0.0000   -0.0000   -0.0068   -0.0000
       14 O1     3d2-       0.0004    0.0010   -0.0011    0.0171   -0.0150   -0.0120    0.0067    0.0284   -0.0000   -0.0019
       15 O1     4d2-       0.0002    0.0005   -0.0006    0.0020   -0.0018   -0.0008    0.0010    0.0025   -0.0000    0.0005
       16 O1     3d1-      -0.0000   -0.0000   -0.0000    0.0000   -0.0000    0.0000    0.0000    0.0000   -0.0269   -0.0000
       17 O1     4d1-      -0.0000    0.0000    0.0000    0.0000   -0.0000   -0.0000    0.0000   -0.0000   -0.0039    0.0000
       18 O1     3d0       -0.0003   -0.0005    0.0005   -0.0104    0.0090    0.0036   -0.0093   -0.0147    0.0000    0.0042
       19 O1     4d0       -0.0002   -0.0004    0.0004   -0.0002    0.0010   -0.0001   -0.0005   -0.0010    0.0000    0.0002
       20 O1     3d1+      -0.0000   -0.0000   -0.0000    0.0000    0.0000   -0.0000    0.0000   -0.0000   -0.0172    0.0000
       21 O1     4d1+       0.0000    0.0000    0.0000    0.0000    0.0000    0.0000    0.0000    0.0000   -0.0034   -0.0000
       22 O1     3d2+      -0.0005   -0.0005    0.0006   -0.0115    0.0046    0.0013   -0.0250   -0.0054   -0.0000    0.0179
       23 O1     4d2+      -0.0003   -0.0003    0.0003   -0.0012    0.0008    0.0005   -0.0020   -0.0001    0.0000    0.0031
       24 O1     4f3-       0.0001   -0.0000    0.0000    0.0006    0.0013    0.0019    0.0060   -0.0029    0.0000   -0.0051
       25 O1     4f2-      -0.0000    0.0000   -0.0000    0.0000    0.0000    0.0000   -0.0000    0.0000    0.0062    0.0000
       26 O1     4f1-       0.0000    0.0001   -0.0001    0.0030   -0.0026   -0.0006    0.0022    0.0031   -0.0000   -0.0007
       27 O1     4f0        0.0000   -0.0000   -0.0000    0.0000    0.0000   -0.0000    0.0000   -0.0000   -0.0038    0.0000
       28 O1     4f1+       0.0000    0.0001   -0.0001    0.0017   -0.0017   -0.0008    0.0007    0.0020    0.0000   -0.0013
       29 O1     4f2+       0.0000   -0.0000    0.0000    0.0000   -0.0000   -0.0000    0.0000   -0.0000   -0.0034   -0.0000
       30 O1     4f3+       0.0000    0.0002   -0.0002    0.0059   -0.0051   -0.0021    0.0042    0.0064    0.0000   -0.0026
       31 O2     1s         0.9990   -0.0000   -0.0008   -0.0272    0.0000   -0.0171   -0.0080   -0.0000   -0.0000    0.0000
       32 O2     2s        -0.0071    0.0003    0.0108    0.6175   -0.0000   -0.6707   -0.0863    0.0000   -0.0000    0.0000
       33 O2     3s        -0.0050    0.0002    0.0062   -0.0673    0.0000   -0.0144   -0.0135   -0.0000   -0.0000    0.0000
       34 O2     4s        -0.0011    0.0000    0.0010   -0.0119    0.0000   -0.0038   -0.0040   -0.0000   -0.0000    0.0000
       35 O2     2px       -0.0017    0.0001    0.0037    0.1049    0.0000    0.2459    0.6576    0.0000    0.0000   -0.0000
       36 O2     3px       -0.0023    0.0001    0.0023   -0.0390    0.0000   -0.0338   -0.0681   -0.0000   -0.0000    0.0000
       37 O2     4px        0.0017   -0.0000   -0.0008   -0.0025    0.0000    0.0009   -0.0091   -0.0000   -0.0000   -0.0000
       38 O2     2py       -0.0000   -0.0056    0.0002   -0.0000   -0.3299    0.0000   -0.0000    0.5623   -0.0000   -0.1459
       39 O2     3py        0.0000   -0.0034    0.0001    0.0000    0.0623   -0.0000    0.0000   -0.0568    0.0000   -0.0090
       40 O2     4py       -0.0000    0.0012   -0.0000   -0.0000   -0.0016   -0.0000    0.0000   -0.0092    0.0000   -0.0010
       41 O2     2pz        0.0000   -0.0000    0.0000   -0.0000   -0.0000   -0.0000   -0.0000    0.0000    0.6888   -0.0000
       42 O2     3pz        0.0000    0.0000    0.0000    0.0000    0.0000    0.0000    0.0000   -0.0000   -0.0462    0.0000
       43 O2     4pz       -0.0000    0.0000    0.0000   -0.0000   -0.0000    0.0000    0.0000   -0.0000   -0.0160    0.0000
       44 O2     3d2-      -0.0000   -0.0015    0.0000   -0.0000   -0.0414    0.0000   -0.0000    0.0297    0.0000   -0.0408
       45 O2     4d2-       0.0000   -0.0007    0.0000   -0.0000   -0.0046    0.0000   -0.0000    0.0028    0.0000   -0.0073
       46 O2     3d1-       0.0000   -0.0000   -0.0000   -0.0000   -0.0000   -0.0000   -0.0000    0.0000   -0.0000    0.0000
       47 O2     4d1-       0.0000   -0.0000   -0.0000   -0.0000   -0.0000   -0.0000   -0.0000    0.0000   -0.0000    0.0000
       48 O2     3d0        0.0006   -0.0000   -0.0010   -0.0153    0.0000   -0.0069   -0.0148   -0.0000   -0.0000    0.0000
       49 O2     4d0        0.0006   -0.0000   -0.0005    0.0008   -0.0000   -0.0004   -0.0009   -0.0000    0.0000    0.0000
       50 O2     3d1+       0.0000   -0.0000   -0.0000    0.0000    0.0000    0.0000   -0.0000    0.0000    0.0327    0.0000
       51 O2     4d1+      -0.0000   -0.0000   -0.0000    0.0000    0.0000    0.0000   -0.0000    0.0000    0.0049    0.0000
       52 O2     3d2+       0.0003   -0.0000   -0.0008   -0.0104    0.0000    0.0007    0.0215    0.0000    0.0000    0.0000
       53 O2     4d2+       0.0001   -0.0000   -0.0004   -0.0011   -0.0000   -0.0004    0.0024    0.0000    0.0000    0.0000
       54 O2     4f3-       0.0000   -0.0000    0.0000    0.0000    0.0003   -0.0000    0.0000   -0.0038    0.0000   -0.0094
       55 O2     4f2-       0.0000   -0.0000   -0.0000   -0.0000   -0.0000   -0.0000   -0.0000   -0.0000   -0.0000    0.0000
       56 O2     4f1-      -0.0000    0.0001   -0.0000    0.0000    0.0050   -0.0000    0.0000   -0.0042   -0.0000    0.0010
       57 O2     4f0       -0.0000    0.0000    0.0000    0.0000    0.0000    0.0000    0.0000   -0.0000   -0.0063   -0.0000
       58 O2     4f1+       0.0001   -0.0000   -0.0001   -0.0032    0.0000   -0.0006   -0.0024   -0.0000   -0.0000   -0.0000
       59 O2     4f2+      -0.0000   -0.0000   -0.0000    0.0000    0.0000    0.0000    0.0000   -0.0000   -0.0051    0.0000
       60 O2     4f3+       0.0001   -0.0000   -0.0002   -0.0094    0.0000   -0.0009   -0.0037   -0.0000   -0.0000    0.0000
       61 O3     1s         0.0022    0.7281    0.6839   -0.0135   -0.0117    0.0096   -0.0125    0.0230    0.0000   -0.0062
       62 O3     2s         0.0036   -0.0052   -0.0051    0.3348    0.5732    0.5891   -0.2670    0.4279   -0.0000   -0.0480
       63 O3     3s         0.0021   -0.0037   -0.0036   -0.0101   -0.0190    0.0163   -0.0255    0.0516    0.0000   -0.0171
       64 O3     4s         0.0004   -0.0008   -0.0007   -0.0007   -0.0041    0.0026   -0.0050    0.0110    0.0000   -0.0041
       65 O3     2px       -0.0010    0.0014    0.0012   -0.0541   -0.0637    0.1056    0.1400    0.3300   -0.0000    0.5303
       66 O3     3px       -0.0007    0.0015    0.0012    0.0122    0.0088   -0.0175   -0.0058   -0.0302   -0.0000    0.0133
       67 O3     4px        0.0001   -0.0007   -0.0008    0.0025    0.0001    0.0008   -0.0002   -0.0022    0.0000   -0.0032
       68 O3     2py        0.0021   -0.0021   -0.0022    0.1087    0.0662   -0.0830    0.3516   -0.2534    0.0000    0.5018
       69 O3     3py        0.0012   -0.0022   -0.0022   -0.0153   -0.0142    0.0140   -0.0354    0.0363    0.0000   -0.0026
       70 O3     4py       -0.0005    0.0013    0.0013   -0.0008   -0.0036   -0.0011   -0.0035    0.0030   -0.0000   -0.0035
       71 O3     2pz       -0.0000   -0.0000   -0.0000    0.0000    0.0000    0.0000   -0.0000    0.0000    0.3731   -0.0000
       72 O3     3pz       -0.0000   -0.0000   -0.0000   -0.0000    0.0000    0.0000   -0.0000   -0.0000   -0.0187   -0.0000
       73 O3     4pz        0.0000   -0.0000    0.0000    0.0000    0.0000    0.0000   -0.0000   -0.0000   -0.0068   -0.0000
       74 O3     3d2-      -0.0004    0.0011    0.0010   -0.0171   -0.0150    0.0120   -0.0067    0.0284   -0.0000   -0.0019
       75 O3     4d2-      -0.0002    0.0005    0.0005   -0.0020   -0.0018    0.0008   -0.0010    0.0025   -0.0000    0.0005
       76 O3     3d1-      -0.0000    0.0000    0.0000   -0.0000    0.0000    0.0000   -0.0000    0.0000    0.0269   -0.0000
       77 O3     4d1-      -0.0000    0.0000   -0.0000   -0.0000    0.0000    0.0000   -0.0000    0.0000    0.0039   -0.0000
       78 O3     3d0       -0.0003    0.0005    0.0005   -0.0104   -0.0090    0.0036   -0.0093    0.0147   -0.0000   -0.0042
       79 O3     4d0       -0.0002    0.0004    0.0004   -0.0002   -0.0010   -0.0001   -0.0005    0.0010   -0.0000   -0.0002
       80 O3     3d1+       0.0000    0.0000    0.0000   -0.0000    0.0000    0.0000    0.0000   -0.0000   -0.0172    0.0000
       81 O3     4d1+      -0.0000    0.0000    0.0000    0.0000    0.0000    0.0000    0.0000   -0.0000   -0.0034   -0.0000
       82 O3     3d2+      -0.0005    0.0006    0.0006   -0.0115   -0.0046    0.0013   -0.0250    0.0054   -0.0000   -0.0179
       83 O3     4d2+      -0.0003    0.0003    0.0003   -0.0012   -0.0008    0.0005   -0.0020    0.0001   -0.0000   -0.0031
       84 O3     4f3-      -0.0001   -0.0000   -0.0000   -0.0006    0.0013   -0.0019   -0.0060   -0.0029   -0.0000   -0.0051
       85 O3     4f2-       0.0000    0.0000    0.0000    0.0000    0.0000    0.0000    0.0000   -0.0000   -0.0062    0.0000
       86 O3     4f1-      -0.0000    0.0002    0.0001   -0.0030   -0.0026    0.0006   -0.0022    0.0031   -0.0000   -0.0007
       87 O3     4f0        0.0000   -0.0000   -0.0000    0.0000   -0.0000   -0.0000    0.0000   -0.0000   -0.0038    0.0000
       88 O3     4f1+       0.0000   -0.0001   -0.0001    0.0017    0.0017   -0.0008    0.0007   -0.0020    0.0000    0.0013
       89 O3     4f2+      -0.0000   -0.0000    0.0000    0.0000   -0.0000   -0.0000    0.0000   -0.0000   -0.0034    0.0000
       90 O3     4f3+       0.0000   -0.0002   -0.0002    0.0059    0.0051   -0.0021    0.0042   -0.0064    0.0000    0.0026
 
          Orbital           11        12        13        14        15        16        17        18        19        20    
          Energy           -0.5535   -0.4888   -0.0493    0.1753    0.1781    0.2366    0.2802    0.3444    0.3823    0.3849
          Occ. No.          2.0000    2.0000    0.0000    0.0000    0.0000    0.0000    0.0000    0.0000    0.0000    0.0000
 
        1 O1     1s         0.0051    0.0000   -0.0000   -0.1909   -0.1413    0.0000   -0.0013   -0.0190    0.0757    0.0000
        2 O1     2s         0.0336    0.0000   -0.0000   -1.4157   -1.0312    0.0000    0.0893   -0.0318    0.4132    0.0000
        3 O1     3s         0.0169    0.0000   -0.0000   -0.8202   -0.5960    0.0000   -0.0847   -0.0386    0.5786    0.0000
        4 O1     4s         0.0046    0.0000   -0.0000   -0.1853   -0.1264    0.0000   -0.0320   -0.0034    0.1705    0.0000
        5 O1     2px        0.6432   -0.0000    0.0000    0.4849    0.2588   -0.0000   -0.2356   -0.2645    0.1759    0.0000
        6 O1     3px        0.0047   -0.0000   -0.0000    0.4297    0.3519   -0.0000    0.1682   -0.7444    0.5874    0.0000
        7 O1     4px       -0.0055   -0.0000   -0.0000    0.0391    0.0769   -0.0000    0.1157   -0.2942    0.2315    0.0000
        8 O1     2py       -0.1275    0.0000    0.0000    0.5216    0.7764   -0.0000   -0.4522   -0.2970   -0.0692   -0.0000
        9 O1     3py       -0.0147   -0.0000    0.0000    0.6864    0.6502   -0.0000   -0.4281   -0.1866   -0.4100   -0.0000
       10 O1     4py       -0.0002   -0.0000    0.0000    0.1151    0.0592   -0.0000   -0.1569   -0.0376   -0.0709    0.0000
       11 O1     2pz       -0.0000   -0.7077    0.6649   -0.0000   -0.0000   -0.1636    0.0000   -0.0000    0.0000   -0.1807
       12 O1     3pz        0.0000   -0.0362    0.1630   -0.0000    0.0000    0.3034    0.0000   -0.0000    0.0000   -0.9442
       13 O1     4pz        0.0000    0.0065    0.0251   -0.0000    0.0000    0.1850    0.0000   -0.0000    0.0000   -0.3778
       14 O1     3d2-      -0.0137   -0.0000    0.0000   -0.0796   -0.0530   -0.0000   -0.0033   -0.0025    0.0037   -0.0000
       15 O1     4d2-      -0.0014   -0.0000    0.0000   -0.0502   -0.0359   -0.0000    0.0036    0.0143   -0.0039   -0.0000
       16 O1     3d1-      -0.0000    0.0218    0.0073   -0.0000    0.0000    0.0170   -0.0000   -0.0000   -0.0000    0.0015
       17 O1     4d1-      -0.0000    0.0055   -0.0001   -0.0000    0.0000    0.0076   -0.0000   -0.0000   -0.0000    0.0098
       18 O1     3d0        0.0054   -0.0000    0.0000    0.0537    0.0450    0.0000    0.0142   -0.0046   -0.0202   -0.0000
       19 O1     4d0        0.0003   -0.0000    0.0000    0.0352    0.0289    0.0000    0.0045   -0.0104   -0.0055   -0.0000
       20 O1     3d1+      -0.0000    0.0134    0.0053   -0.0000   -0.0000    0.0048   -0.0000    0.0000   -0.0000    0.0159
       21 O1     4d1+      -0.0000    0.0032   -0.0001   -0.0000    0.0000    0.0000   -0.0000   -0.0000   -0.0000    0.0140
       22 O1     3d2+      -0.0005    0.0000   -0.0000    0.0390    0.0508   -0.0000    0.0359   -0.0004   -0.0832   -0.0000
       23 O1     4d2+      -0.0012   -0.0000   -0.0000    0.0230    0.0348   -0.0000    0.0115   -0.0009   -0.0494   -0.0000
       24 O1     4f3-       0.0026   -0.0000   -0.0000   -0.0003   -0.0006   -0.0000    0.0015   -0.0046    0.0123    0.0000
       25 O1     4f2-      -0.0000   -0.0047    0.0002    0.0000    0.0000    0.0022    0.0000   -0.0000    0.0000   -0.0053
       26 O1     4f1-      -0.0015   -0.0000   -0.0000   -0.0061   -0.0040   -0.0000    0.0005    0.0050    0.0027    0.0000
       27 O1     4f0       -0.0000    0.0015    0.0014    0.0000   -0.0000   -0.0013   -0.0000    0.0000   -0.0000    0.0061
       28 O1     4f1+       0.0001   -0.0000    0.0000   -0.0023   -0.0030   -0.0000   -0.0001    0.0051   -0.0007   -0.0000
       29 O1     4f2+       0.0000    0.0024   -0.0005    0.0000   -0.0000   -0.0002   -0.0000   -0.0000   -0.0000    0.0020
       30 O1     4f3+      -0.0029   -0.0000   -0.0000   -0.0090   -0.0048   -0.0000    0.0038    0.0086    0.0029   -0.0000
       31 O2     1s         0.0199    0.0000    0.0000   -0.0000    0.3151   -0.0000   -0.0751   -0.0000   -0.1030   -0.0000
       32 O2     2s         0.2430   -0.0000    0.0000   -0.0001    2.2836   -0.0000   -0.6415   -0.0000   -0.6272   -0.0000
       33 O2     3s         0.0475    0.0000    0.0000   -0.0000    1.2677   -0.0000   -0.1687   -0.0000   -0.3643    0.0000
       34 O2     4s         0.0118    0.0000    0.0000   -0.0000    0.2707   -0.0000   -0.0349   -0.0000   -0.0388    0.0000
       35 O2     2px       -0.4808    0.0000   -0.0000   -0.0000    0.8142   -0.0000   -0.3717   -0.0000   -0.5245   -0.0000
       36 O2     3px       -0.0015    0.0000   -0.0000   -0.0000    0.8922   -0.0000    0.2184   -0.0000   -1.3842   -0.0000
       37 O2     4px       -0.0010    0.0000   -0.0000   -0.0000    0.1442   -0.0000    0.1371   -0.0000   -0.3169   -0.0000
       38 O2     2py        0.0000   -0.0000    0.0000    1.3323    0.0000   -0.0000   -0.0000   -0.1571   -0.0000   -0.0000
       39 O2     3py        0.0000   -0.0000   -0.0000    1.2809    0.0000   -0.0000   -0.0000    0.4916   -0.0000   -0.0000
       40 O2     4py        0.0000   -0.0000   -0.0000    0.1326    0.0000   -0.0000   -0.0000    0.2317   -0.0000   -0.0000
       41 O2     2pz        0.0000   -0.0000   -0.8559   -0.0000    0.0000    0.0318   -0.0000   -0.0000   -0.0000   -0.0000
       42 O2     3pz       -0.0000    0.0000   -0.1836    0.0000    0.0000    0.4060   -0.0000   -0.0000   -0.0000   -0.0000
       43 O2     4pz       -0.0000    0.0000   -0.0216    0.0000    0.0000    0.2108   -0.0000   -0.0000   -0.0000   -0.0000
       44 O2     3d2-       0.0000   -0.0000    0.0000    0.1409    0.0000    0.0000   -0.0000    0.0865    0.0000   -0.0000
       45 O2     4d2-       0.0000   -0.0000   -0.0000    0.0878    0.0000    0.0000   -0.0000    0.0643   -0.0000   -0.0000
       46 O2     3d1-      -0.0000   -0.0576    0.0000    0.0000   -0.0000    0.0000    0.0000    0.0000   -0.0000    0.0937
       47 O2     4d1-      -0.0000   -0.0136    0.0000    0.0000   -0.0000    0.0000    0.0000    0.0000   -0.0000    0.0563
       48 O2     3d0        0.0180    0.0000   -0.0000    0.0000   -0.0826   -0.0000   -0.0539    0.0000    0.1367    0.0000
       49 O2     4d0        0.0021   -0.0000    0.0000    0.0000   -0.0542   -0.0000   -0.0280    0.0000    0.0797    0.0000
       50 O2     3d1+       0.0000   -0.0000    0.0072   -0.0000   -0.0000   -0.0278    0.0000    0.0000    0.0000   -0.0000
       51 O2     4d1+       0.0000   -0.0000    0.0016   -0.0000   -0.0000   -0.0104    0.0000    0.0000   -0.0000   -0.0000
       52 O2     3d2+       0.0403   -0.0000    0.0000    0.0000   -0.0443   -0.0000   -0.0717    0.0000   -0.0149   -0.0000
       53 O2     4d2+       0.0087   -0.0000    0.0000    0.0000   -0.0227    0.0000   -0.0292   -0.0000   -0.0281   -0.0000
       54 O2     4f3-       0.0000   -0.0000    0.0000   -0.0046   -0.0000    0.0000    0.0000    0.0051   -0.0000    0.0000
       55 O2     4f2-      -0.0000   -0.0086    0.0000    0.0000   -0.0000    0.0000   -0.0000    0.0000   -0.0000    0.0079
       56 O2     4f1-      -0.0000    0.0000   -0.0000   -0.0079   -0.0000   -0.0000    0.0000   -0.0125    0.0000    0.0000
       57 O2     4f0        0.0000    0.0000   -0.0020   -0.0000   -0.0000   -0.0029    0.0000    0.0000    0.0000    0.0000
       58 O2     4f1+      -0.0003    0.0000   -0.0000    0.0000   -0.0072    0.0000   -0.0060    0.0000    0.0147    0.0000
       59 O2     4f2+      -0.0000    0.0000    0.0009   -0.0000    0.0000   -0.0015    0.0000   -0.0000    0.0000    0.0000
       60 O2     4f3+       0.0063    0.0000   -0.0000    0.0000   -0.0121   -0.0000   -0.0078    0.0000    0.0166    0.0000
       61 O3     1s         0.0051   -0.0000   -0.0000    0.1909   -0.1413    0.0000   -0.0013    0.0190    0.0757    0.0000
       62 O3     2s         0.0336   -0.0000   -0.0000    1.4158   -1.0311    0.0000    0.0893    0.0318    0.4132    0.0000
       63 O3     3s         0.0169   -0.0000   -0.0000    0.8202   -0.5960    0.0000   -0.0847    0.0386    0.5786    0.0000
       64 O3     4s         0.0046   -0.0000   -0.0000    0.1853   -0.1264    0.0000   -0.0320    0.0034    0.1705    0.0000
       65 O3     2px        0.6431    0.0000    0.0000   -0.4849    0.2587    0.0000   -0.2356    0.2645    0.1759    0.0000
       66 O3     3px        0.0047    0.0000    0.0000   -0.4297    0.3519    0.0000    0.1682    0.7444    0.5874    0.0000
       67 O3     4px       -0.0055   -0.0000    0.0000   -0.0391    0.0769    0.0000    0.1157    0.2942    0.2315    0.0000
       68 O3     2py        0.1274    0.0000   -0.0000    0.5217   -0.7764    0.0000    0.4522   -0.2970    0.0692    0.0000
       69 O3     3py        0.0147   -0.0000   -0.0000    0.6864   -0.6502    0.0000    0.4281   -0.1866    0.4100   -0.0000
       70 O3     4py        0.0002    0.0000   -0.0000    0.1151   -0.0592    0.0000    0.1569   -0.0376    0.0709   -0.0000
       71 O3     2pz        0.0000    0.7077    0.6649   -0.0000   -0.0000   -0.1636    0.0000    0.0000   -0.0000    0.1807
       72 O3     3pz        0.0000    0.0362    0.1630    0.0000    0.0000    0.3034    0.0000    0.0000   -0.0000    0.9442
       73 O3     4pz        0.0000   -0.0065    0.0251    0.0000    0.0000    0.1850   -0.0000   -0.0000   -0.0000    0.3778
       74 O3     3d2-       0.0137   -0.0000    0.0000   -0.0796    0.0530   -0.0000    0.0033   -0.0025   -0.0037    0.0000
       75 O3     4d2-       0.0014   -0.0000    0.0000   -0.0502    0.0358   -0.0000   -0.0036    0.0143    0.0039    0.0000
       76 O3     3d1-       0.0000    0.0218   -0.0073   -0.0000   -0.0000   -0.0170    0.0000    0.0000    0.0000    0.0015
       77 O3     4d1-       0.0000    0.0055    0.0001    0.0000   -0.0000   -0.0076    0.0000    0.0000    0.0000    0.0098
       78 O3     3d0        0.0054   -0.0000    0.0000   -0.0537    0.0450   -0.0000    0.0142    0.0046   -0.0202    0.0000
       79 O3     4d0        0.0003   -0.0000    0.0000   -0.0352    0.0289   -0.0000    0.0045    0.0104   -0.0055    0.0000
       80 O3     3d1+      -0.0000   -0.0134    0.0053    0.0000   -0.0000    0.0048    0.0000    0.0000    0.0000   -0.0159
       81 O3     4d1+       0.0000   -0.0032   -0.0001    0.0000   -0.0000    0.0000    0.0000    0.0000    0.0000   -0.0140
       82 O3     3d2+      -0.0005   -0.0000    0.0000   -0.0390    0.0508   -0.0000    0.0359    0.0004   -0.0832   -0.0000
       83 O3     4d2+      -0.0012   -0.0000   -0.0000   -0.0230    0.0348   -0.0000    0.0115    0.0009   -0.0494   -0.0000
       84 O3     4f3-      -0.0026   -0.0000    0.0000   -0.0003    0.0006    0.0000   -0.0015   -0.0046   -0.0123   -0.0000
       85 O3     4f2-      -0.0000   -0.0047   -0.0002   -0.0000   -0.0000   -0.0022    0.0000    0.0000    0.0000   -0.0053
       86 O3     4f1-       0.0015   -0.0000    0.0000   -0.0061    0.0040    0.0000   -0.0005    0.0050   -0.0027    0.0000
       87 O3     4f0       -0.0000   -0.0015    0.0014   -0.0000   -0.0000   -0.0013   -0.0000   -0.0000    0.0000   -0.0061
       88 O3     4f1+       0.0001    0.0000   -0.0000    0.0023   -0.0030    0.0000   -0.0001   -0.0051   -0.0007   -0.0000
       89 O3     4f2+      -0.0000   -0.0024   -0.0005    0.0000   -0.0000   -0.0002   -0.0000    0.0000   -0.0000   -0.0020
       90 O3     4f3+      -0.0029    0.0000   -0.0000    0.0090   -0.0048    0.0000    0.0038   -0.0086    0.0029   -0.0000
 
          Orbital           21        22    
          Energy            0.4185    0.4454
          Occ. No.          0.0000    0.0000
 
        1 O1     1s        -0.0213   -0.0030
        2 O1     2s        -0.0954   -0.0965
        3 O1     3s        -0.0578    0.1657
        4 O1     4s         0.0158    0.0524
        5 O1     2px        0.2319    0.3297
        6 O1     3px        0.5674   -0.1939
        7 O1     4px        0.1311   -0.0898
        8 O1     2py       -0.0751    0.1608
        9 O1     3py        0.7174   -0.4715
       10 O1     4py        0.2355   -0.1635
       11 O1     2pz        0.0000    0.0000
       12 O1     3pz        0.0000    0.0000
       13 O1     4pz        0.0000    0.0000
       14 O1     3d2-      -0.1346    0.0960
       15 O1     4d2-      -0.0891    0.0515
       16 O1     3d1-      -0.0000   -0.0000
       17 O1     4d1-      -0.0000   -0.0000
       18 O1     3d0        0.0420   -0.0736
       19 O1     4d0        0.0273   -0.0438
       20 O1     3d1+       0.0000   -0.0000
       21 O1     4d1+      -0.0000   -0.0000
       22 O1     3d2+       0.0519   -0.0137
       23 O1     4d2+       0.0280   -0.0148
       24 O1     4f3-       0.0021   -0.0023
       25 O1     4f2-       0.0000    0.0000
       26 O1     4f1-      -0.0084    0.0092
       27 O1     4f0       -0.0000   -0.0000
       28 O1     4f1+      -0.0062    0.0057
       29 O1     4f2+      -0.0000   -0.0000
       30 O1     4f3+      -0.0169    0.0084
       31 O2     1s         0.1729   -0.0000
       32 O2     2s         0.9041   -0.0000
       33 O2     3s         0.9082   -0.0000
       34 O2     4s         0.2106   -0.0000
       35 O2     2px       -0.4434    0.0000
       36 O2     3px       -0.5664    0.0000
       37 O2     4px       -0.2603    0.0000
       38 O2     2py        0.0000    0.7804
       39 O2     3py        0.0000    0.1685
       40 O2     4py        0.0000    0.0981
       41 O2     2pz       -0.0000   -0.0000
       42 O2     3pz       -0.0000   -0.0000
       43 O2     4pz       -0.0000   -0.0000
       44 O2     3d2-      -0.0000   -0.1668
       45 O2     4d2-      -0.0000   -0.0624
       46 O2     3d1-      -0.0000   -0.0000
       47 O2     4d1-      -0.0000   -0.0000
       48 O2     3d0       -0.1183    0.0000
       49 O2     4d0       -0.0441    0.0000
       50 O2     3d1+       0.0000   -0.0000
       51 O2     4d1+       0.0000   -0.0000
       52 O2     3d2+      -0.0891    0.0000
       53 O2     4d2+      -0.0364    0.0000
       54 O2     4f3-      -0.0000   -0.0019
       55 O2     4f2-      -0.0000   -0.0000
       56 O2     4f1-      -0.0000   -0.0003
       57 O2     4f0        0.0000    0.0000
       58 O2     4f1+       0.0007    0.0000
       59 O2     4f2+       0.0000    0.0000
       60 O2     4f3+      -0.0034    0.0000
       61 O3     1s        -0.0213    0.0030
       62 O3     2s        -0.0954    0.0965
       63 O3     3s        -0.0578   -0.1657
       64 O3     4s         0.0158   -0.0524
       65 O3     2px        0.2319   -0.3297
       66 O3     3px        0.5674    0.1938
       67 O3     4px        0.1311    0.0898
       68 O3     2py        0.0752    0.1608
       69 O3     3py       -0.7174   -0.4715
       70 O3     4py       -0.2355   -0.1635
       71 O3     2pz       -0.0000    0.0000
       72 O3     3pz       -0.0000    0.0000
       73 O3     4pz       -0.0000    0.0000
       74 O3     3d2-       0.1346    0.0960
       75 O3     4d2-       0.0891    0.0515
       76 O3     3d1-       0.0000    0.0000
       77 O3     4d1-       0.0000    0.0000
       78 O3     3d0        0.0420    0.0736
       79 O3     4d0        0.0273    0.0438
       80 O3     3d1+       0.0000    0.0000
       81 O3     4d1+       0.0000    0.0000
       82 O3     3d2+       0.0519    0.0137
       83 O3     4d2+       0.0280    0.0148
       84 O3     4f3-      -0.0021   -0.0023
       85 O3     4f2-       0.0000    0.0000
       86 O3     4f1-       0.0084    0.0092
       87 O3     4f0        0.0000   -0.0000
       88 O3     4f1+      -0.0062   -0.0057
       89 O3     4f2+      -0.0000   -0.0000
       90 O3     4f3+      -0.0169   -0.0084
--
 
 
++    Molecular charges:
      ------------------
 
      Mulliken charges per centre and basis function type
      ---------------------------------------------------
 
                O1      O2      O3    
      1s       1.9979  1.9980  1.9979
      2s       1.9437  1.7180  1.9437
      2px      1.6993  1.5195  1.6993
      2pz      1.3672  1.1838  1.3672
      2py      1.1324  1.0532  1.1324
      3s      -0.0010 -0.0222 -0.0010
      3px     -0.0112 -0.0135 -0.0112
      3pz     -0.0116 -0.0133 -0.0116
      3py      0.0040  0.0013  0.0040
      4s       0.0045  0.0023  0.0045
      3d2+     0.0107  0.0387  0.0107
      3d1+     0.0044  0.0094  0.0044
      3d0      0.0056  0.0075  0.0056
      3d1-     0.0107  0.0451  0.0107
      3d2-     0.0173  0.0417  0.0173
      4px      0.0008  0.0018  0.0008
      4pz      0.0012  0.0016  0.0012
      4py      0.0024  0.0030  0.0024
      4d2+     0.0002  0.0077  0.0002
      4d1+     0.0008  0.0013  0.0008
      4d0     -0.0001 -0.0001 -0.0001
      4d1-     0.0010  0.0116  0.0010
      4d2-     0.0006  0.0042  0.0006
      4f3+     0.0029  0.0032  0.0029
      4f2+     0.0005  0.0008  0.0005
      4f1+     0.0004  0.0006  0.0004
      4f0      0.0009  0.0016  0.0009
      4f1-     0.0009  0.0012  0.0009
      4f2-     0.0017  0.0044  0.0017
      4f3-     0.0020  0.0071  0.0020
      Total    8.1903  7.6194  8.1903
 
      N-E     -0.1903  0.3806 -0.1903
 
      Total electronic charge=   24.000000
 
      Total            charge=   -0.000000
--
 
 
  Input file to MOLDEN was generated!
 
 
++    Static properties:
      ------------------
 
 
      LoProp Charges per center
 

                   O1       O2       O3    
      Nuclear      8.0000   8.0000   8.0000
      Electronic  -8.2087  -7.5826  -8.2087
 
      Total       -0.2087   0.4174  -0.2087
--
 
 
++    Natural Bond Order analysis
      ---------------------------
      Based on LoProp computed density
      -------------------------------------------------------------------------------------
      Atom A       Atom B       Bond Order | Atom A       Atom B       Bond Order
        O1           O2             1.997  |   O2           O3             1.997
      -------------------------------------------------------------------------------------
      NBO located      9.999 core electrons.
      NBO located      5.937 lone pair electrons.
      NBO located      7.990 electrons involved in    2 bonds.
      The remaining    0.074 electrons are to be considered as diffuse
--
 
 
++    Molecular properties:
      ---------------------
 
      Charge (e):
                      =   -0.0000
      Dipole Moment (Debye):
      Origin of the operator (Ang)=    0.0000    0.0000    0.0000
                   X= -7.8947E-01               Y=  6.2189E-07               Z=  9.2978E-14           Total=  7.8947E-01
      Quadrupole Moment (Debye*Ang):
      Origin of the operator (Ang)=    0.4420    0.0000    0.0000
                  XX= -1.5767E+01              XY=  1.5304E-07              XZ=  4.3162E-14              YY= -1.7331E+01
                  YZ=  1.1901E-13              ZZ= -1.4901E+01
      In traceless form (Debye*Ang)
                  XX=  3.4914E-01              XY=  2.2956E-07              XZ=  6.4743E-14              YY= -1.9967E+00
                  YZ=  1.7851E-13              ZZ=  1.6476E+00
--
 
 
  Input file to MOLDEN was generated!
 
 ###############################################################################
 ###############################################################################
 ###                                                                         ###
 ###                                                                         ###
 ###    RunFile label nBas                                                   ###
 ###    was used       78 times                                              ###
 ###                                                                         ###
 ###                                                                         ###
 ###############################################################################
 ###############################################################################
forrtl: warning (528): IEEE_UNDERFLOW is signaling
--- Stop Module: scf at Fri Apr 11 18:39:17 2025 /rc=_RC_ALL_IS_WELL_ ---
*** files: ozone_117.50.LprOrb ozone_117.50.LoProp.molden ozone_117.50.scf.molden ozone_117.50.ScfOrb ozone_117.50.scf.h5 xmldump
    saved to directory /home/grierjones/DDCASPT2/ozone/multistate/ANO-RCC-VTZP/ozone_117.50

>>> COPY /tmp/ozone_117.50/ozone_117.50.scf.h5 /home/grierjones/DDCASPT2/ozone/multistate/ANO-RCC-VTZP/ozone_117.50/

*** symbolic link created: INPORB -> ozone_117.50.ScfOrb
--- Start Module: rasscf at Fri Apr 11 18:39:17 2025 ---
 
()()()()()()()()()()()()()()()()()()()()()()()()()()()()()()()()()()()()()()()()()()()()()()()()()()

                                              &RASSCF

                                   only a single process is used
                       available to each process: 2.0 GB of memory, 1 thread?
()()()()()()()()()()()()()()()()()()()()()()()()()()()()()()()()()()()()()()()()()()()()()()()()()()
 
 
      Header of the ONEINT file:
      --------------------------
      
      Integrals generated by seward 4.2.0  , Fri Apr 11 18:39:14 2025
 
 
      OrdInt status: non-squared
 
 
      Cartesian coordinates in Angstrom:
      -----------------------------------------------------
      No.  Label        X            Y            Z        
      -----------------------------------------------------
       1   O1         0.66299200   1.09257700   0.00000000
       2   O2         0.00000000   0.00000000   0.00000000
       3   O3         0.66299200  -1.09257700   0.00000000
      -----------------------------------------------------
      Nuclear repulsion energy =   68.49938745
 
++    Wave function specifications:
      -----------------------------
 
      Number of closed shell electrons          20
      Number of electrons in active shells       4
      Max number of holes in RAS1 space          0
      Max nr of electrons in RAS3 space          0
      Number of inactive orbitals               10
      Number of active orbitals                  3
      Number of secondary orbitals              77
      Spin quantum number                      0.0
      State symmetry                             1
--
 
++    Orbital specifications:
      -----------------------
 
      Symmetry species                           1
                                                 a
      Frozen orbitals                            0
      Inactive orbitals                         10
      Active orbitals                            3
      RAS1 orbitals                              0
      RAS2 orbitals                              3
      RAS3 orbitals                              0
      Secondary orbitals                        77
      Deleted orbitals                           0
      Number of basis functions                 90
--
 
++    CI expansion specifications:
      ----------------------------
 
      Number of CSFs                             6
      Number of determinants                     6
      Number of root(s) required                 3
      Root chosen for geometry opt.              3
      CI roots used                              1     2     3
      weights                                0.333 0.333 0.333
      highest root included in the CI            3
      max. size of the explicit Hamiltonian      6
--
 
++    Optimization specifications:
      ----------------------------
 
      RASSCF algorithm: Conventional
      Maximum number of macro iterations       200
      Maximum number of SX iterations          100
      Threshold for RASSCF energy            0.100E-07
      Threshold for max MO rotation          0.100E+00
      Threshold for max BLB element          0.100E-03
      Level shift parameter                  0.500E+00
      Make Quasi-Newton update
--
 
      The MO-coefficients are taken from the file:
      /home/grierjones/DDCASPT2/ozone/multistate/ANO-RCC-VTZP/ozone_117.25/ozone_117.25.RasOrb                                        
      Title: RASSCF average (pseudo-natural) orbitals                                      
 
      Total molecular charge    0.00
 
      ************************************************************************************************************************
      *                                                                                                                      *
      *                                            Wave function control section                                             *
      *                                                                                                                      *
      ************************************************************************************************************************
 
 
                                         RASSCF iterations: Energy and convergence statistics
                                         ----------------------------------------------------
 
      Iter CI   SX   CI       RASSCF       Energy    max ROT     max BLB   max BLB  Level Ln srch  Step   QN   Walltime
          iter iter root      energy       change     param      element    value   shift minimum  type update hh:mm:ss
 Nr of preliminary CI iterations:   1
        1   1    4    0  -224.47750605    0.00E+00   0.76E-03    8  79 1 -0.76E-03*  0.29   0.00    SX    NO    0:00:00
        2   1    4    0  -224.47751125   -0.52E-05*  0.51E-03    9  21 1  0.38E-03*  0.29   0.00    SX    NO    0:00:00
        3   1    4    0  -224.47751262   -0.14E-05*  0.35E-03   12  22 1  0.22E-03*  0.29   0.00    SX    NO    0:00:00
        4   1    4    0  -224.47751311   -0.49E-06*  0.23E-03   12  22 1  0.12E-03*  0.29   0.00    SX    NO    0:00:00
        5   1    4    0  -224.47751330   -0.19E-06*  0.35E-03    8  11 1  0.77E-04   0.29   2.50    LS   YES    0:00:00
        6   1    4    0  -224.47751343   -0.13E-06*  0.16E-03    9  21 1 -0.47E-04   0.29   1.14    QN   YES    0:00:00
        7   1    3    0  -224.47751345   -0.22E-07*  0.84E-04    8  22 1  0.51E-04   0.29   0.86    QN   YES    0:00:00
        8   1    3    0  -224.47751346   -0.16E-07*  0.21E-03   12  22 1 -0.30E-04   0.29   1.93    QN   YES    0:00:00
        9   1    3    0  -224.47751348   -0.14E-07*  0.81E-04    8  22 1 -0.16E-04   0.29   1.12    QN   YES    0:00:00
       10   1    3    0  -224.47751348   -0.26E-08   0.21E-03   10  11 1 -0.11E-04   0.29   1.70    QN   YES    0:00:00
      Convergence after 10 iterations
 
  Dmat in MO in SXCTL bf call to SXHAM                                                                                    
  mat. size =     3x    3
 
        1.3971511578993545
       -0.0032080208023250      1.6714211324402257
        0.0000366003018853     -0.0008829302727658      0.9314277096604182
       11   1    3    0  -224.47751348   -0.36E-08   0.21E-03   12  22 1  0.12E-04   0.29   1.70    QN   YES    0:00:00
 
      ************************************************************************************************************************
                                                      Wave function printout:
                       occupation of active orbitals, and spin coupling of open shells (u,d: Spin up or down)
      ************************************************************************************************************************
 
      Note: transformation to natural orbitals
      has been made, which may change the order of the CSFs.
 
      printout of CI-coefficients larger than  0.05 for root  1
      energy=    -224.507513
      conf/sym  111     Coeff  Weight
             1  220   0.90563 0.82017
             2  2ud  -0.10860 0.01179
             4  u2d  -0.33519 0.11235
             5  ud2   0.05312 0.00282
             6  022  -0.22978 0.05280
 
      printout of CI-coefficients larger than  0.05 for root  2
      energy=    -224.497026
      conf/sym  111     Coeff  Weight
             1  220   0.10053 0.01011
             2  2ud   0.55590 0.30902
             3  202  -0.15238 0.02322
             4  u2d  -0.15368 0.02362
             5  ud2  -0.77474 0.60022
             6  022   0.18388 0.03381
 
      printout of CI-coefficients larger than  0.05 for root  3
      energy=    -224.428002
      conf/sym  111     Coeff  Weight
             1  220   0.39979 0.15983
             2  2ud   0.10700 0.01145
             4  u2d   0.87021 0.75727
             6  022   0.26313 0.06924
 
      Natural orbitals and occupation numbers for root  1
      sym 1:   1.844260   1.999648   0.156091
 
      Natural orbitals and occupation numbers for root  2
      sym 1:   1.150284   0.851058   1.998657
 
      Natural orbitals and occupation numbers for root  3
      sym 1:   1.828268   1.997034   0.174698
 
      ************************************************************************************************************************
      *                                                                                                                      *
      *                                                    Final results                                                     *
      *                                                                                                                      *
      ************************************************************************************************************************
 
 
++    Wave function specifications:
      -----------------------------
 
      Number of closed shell electrons          20
      Number of electrons in active shells       4
      Max number of holes in RAS1 space          0
      Max nr of electrons in RAS3 space          0
      Number of inactive orbitals               10
      Number of active orbitals                  3
      Number of secondary orbitals              77
      Spin quantum number                      0.0
      State symmetry                             1
--
 
++    Orbital specifications:
      -----------------------
 
      Symmetry species                           1
                                                 a
      Frozen orbitals                            0
      Inactive orbitals                         10
      Active orbitals                            3
      RAS1 orbitals                              0
      RAS2 orbitals                              3
      RAS3 orbitals                              0
      Secondary orbitals                        77
      Deleted orbitals                           0
      Number of basis functions                 90
--
 
++    CI expansion specifications:
      ----------------------------
 
      Number of CSFs                             6
      Number of determinants                     6
      Number of root(s) required                 3
      CI roots used                              1     2     3
      weights                                0.333 0.333 0.333
      highest root included in the CI            3
      Root passed to geometry opt.               3
--
 
++    Final optimization conditions:
      ------------------------------
 
      Average CI energy                            -224.47751348
      RASSCF energy for state  3                   -224.42800151
      Super-CI energy                                -0.00000000
      RASSCF energy change                           -0.00000000
      Max change in MO coefficients              -0.176E-03
      Max non-diagonal density matrix element     0.208E-03
      Maximum BLB matrix element                  0.116E-04
      (orbital pair  12,  22 in symmetry   1)
      Norm of electronic gradient            0.180E+00
--
 
 
      Final state energy(ies):
      ------------------------
 
::    RASSCF root number  1 Total energy:   -224.50751305
::    RASSCF root number  2 Total energy:   -224.49702590
::    RASSCF root number  3 Total energy:   -224.42800151
 
++    Molecular orbitals:
      -------------------
 
      Pseudonatural active orbitals and approximate occupation numbers
 
 
 
 
      Molecular orbitals for symmetry species 1: a  
 
 
      Orbital                1         2         3         4         5         6         7         8         9        10
      Energy          -20.8329  -20.7367  -20.7325   -1.7180   -1.4215   -1.0808   -0.7890   -0.7766   -0.7747   -0.5488
      Occ. No.          2.0000    2.0000    2.0000    2.0000    2.0000    2.0000    2.0000    2.0000    2.0000    2.0000
 
    1 O1     1s         0.0039    0.9989    0.0050   -0.0136    0.0104    0.0121    0.0003   -0.0254   -0.0011   -0.0002
    2 O1     2s         0.0041   -0.0072   -0.0003    0.3564   -0.5930    0.6044    0.0008   -0.4383   -0.0279   -0.0028
    3 O1     3s         0.0024   -0.0051   -0.0001   -0.0128    0.0188    0.0204    0.0011   -0.0572   -0.0019    0.0015
    4 O1     4s         0.0004   -0.0010    0.0000   -0.0013    0.0042    0.0031    0.0003   -0.0125   -0.0005    0.0006
    5 O1     2px       -0.0010    0.0019   -0.0001   -0.0507    0.0568    0.1007    0.1356   -0.2183    0.1096    0.3091
    6 O1     3px       -0.0008    0.0018   -0.0001    0.0129   -0.0080   -0.0183   -0.0105    0.0237   -0.0147    0.0067
    7 O1     4px        0.0001   -0.0010   -0.0001    0.0022   -0.0002    0.0003   -0.0010    0.0021   -0.0012   -0.0025
    8 O1     2py       -0.0024    0.0030    0.0002   -0.1143    0.0678    0.1197   -0.0945   -0.4767   -0.1588   -0.1573
    9 O1     3py       -0.0014    0.0030    0.0001    0.0168   -0.0138   -0.0194    0.0062    0.0468    0.0138   -0.0050
   10 O1     4py        0.0006   -0.0019   -0.0001    0.0008   -0.0037    0.0013    0.0013    0.0061    0.0030    0.0009
   11 O1     2pz        0.0000    0.0000   -0.0000    0.0011   -0.0030   -0.0055   -0.3538   -0.0009    0.1205   -0.6968
   12 O1     3pz        0.0000    0.0000   -0.0000   -0.0001    0.0002    0.0004    0.0258    0.0014   -0.0133   -0.0127
   13 O1     4pz        0.0000   -0.0000   -0.0000   -0.0000   -0.0000   -0.0000    0.0048    0.0001   -0.0023    0.0062
   14 O1     3d2-       0.0005   -0.0013   -0.0000    0.0168   -0.0148   -0.0130   -0.0043    0.0288   -0.0050   -0.0037
   15 O1     4d2-       0.0002   -0.0008   -0.0000    0.0018   -0.0018   -0.0009   -0.0003    0.0026   -0.0005   -0.0007
   16 O1     3d1-      -0.0000    0.0000   -0.0000    0.0001   -0.0003    0.0002    0.0214    0.0005   -0.0110    0.0134
   17 O1     4d1-       0.0000   -0.0000   -0.0000   -0.0000   -0.0001    0.0001    0.0025    0.0000   -0.0014    0.0025
   18 O1     3d0       -0.0004    0.0009   -0.0000   -0.0110    0.0084    0.0065   -0.0005   -0.0194   -0.0030    0.0001
   19 O1     4d0       -0.0002    0.0005   -0.0000   -0.0005    0.0011    0.0003    0.0000   -0.0015   -0.0002   -0.0002
   20 O1     3d1+      -0.0000   -0.0001   -0.0000   -0.0004    0.0007   -0.0005    0.0127    0.0006   -0.0065    0.0077
   21 O1     4d1+       0.0000    0.0000   -0.0000   -0.0000    0.0002   -0.0002    0.0018    0.0001   -0.0010    0.0012
   22 O1     3d2+      -0.0005    0.0007    0.0000   -0.0120    0.0051    0.0025   -0.0098   -0.0188   -0.0189   -0.0047
   23 O1     4d2+      -0.0003    0.0004    0.0000   -0.0013    0.0008    0.0002   -0.0010   -0.0016   -0.0021   -0.0011
   24 O1     4f3-       0.0001    0.0000    0.0000    0.0006    0.0011    0.0014    0.0028    0.0003    0.0050    0.0012
   25 O1     4f2-      -0.0000    0.0000   -0.0000   -0.0001    0.0000    0.0001   -0.0048   -0.0006    0.0020   -0.0029
   26 O1     4f1-       0.0001   -0.0002    0.0000    0.0036   -0.0029   -0.0011    0.0008    0.0048    0.0012    0.0007
   27 O1     4f0       -0.0000   -0.0000   -0.0000   -0.0000   -0.0000   -0.0001    0.0043    0.0001   -0.0024    0.0026
   28 O1     4f1+       0.0000   -0.0001   -0.0000    0.0020   -0.0020   -0.0012   -0.0013    0.0026   -0.0007   -0.0015
   29 O1     4f2+      -0.0000    0.0000    0.0000   -0.0002    0.0001    0.0003    0.0027   -0.0005   -0.0012    0.0015
   30 O1     4f3+       0.0001   -0.0003    0.0000    0.0053   -0.0046   -0.0022    0.0002    0.0067    0.0009   -0.0000
   31 O2     1s         0.9989   -0.0021   -0.0020   -0.0279    0.0001   -0.0156   -0.0056   -0.0074   -0.0132    0.0063
   32 O2     2s        -0.0076    0.0075    0.0077    0.5931    0.0073   -0.6822   -0.0766   -0.1016   -0.1772    0.0811
   33 O2     3s        -0.0056    0.0043    0.0044   -0.0580    0.0002   -0.0248   -0.0110   -0.0153   -0.0273    0.0158
   34 O2     4s        -0.0011    0.0007    0.0007   -0.0114    0.0001   -0.0046   -0.0029   -0.0038   -0.0069    0.0038
   35 O2     2px       -0.0020    0.0026    0.0026    0.1047   -0.0012    0.1775    0.2732    0.2978    0.5878   -0.1257
   36 O2     3px       -0.0025    0.0016    0.0016   -0.0370   -0.0002   -0.0224   -0.0220   -0.0201   -0.0410   -0.0029
   37 O2     4px        0.0019   -0.0005   -0.0006   -0.0035   -0.0001    0.0016   -0.0047   -0.0044   -0.0091    0.0000
   38 O2     2py       -0.0001    0.0039   -0.0039    0.0016   -0.2972   -0.0042   -0.1136    0.5022   -0.1935    0.0257
   39 O2     3py       -0.0001    0.0024   -0.0024   -0.0004    0.0576    0.0003    0.0116   -0.0436    0.0158    0.0036
   40 O2     4py        0.0000   -0.0008    0.0008   -0.0001   -0.0009    0.0001    0.0023   -0.0090    0.0035    0.0006
   41 O2     2pz        0.0000   -0.0000    0.0000    0.0013    0.0028   -0.0000   -0.6226   -0.0316    0.3618    0.1003
   42 O2     3pz        0.0000   -0.0000    0.0000    0.0000   -0.0001   -0.0002    0.0404    0.0014   -0.0203    0.0034
   43 O2     4pz       -0.0000    0.0000   -0.0000    0.0000   -0.0000    0.0000    0.0111    0.0005   -0.0060   -0.0009
   44 O2     3d2-      -0.0000    0.0010   -0.0010    0.0002   -0.0397   -0.0000   -0.0071    0.0366   -0.0117    0.0110
   45 O2     4d2-      -0.0000    0.0005   -0.0005   -0.0000   -0.0041    0.0001   -0.0007    0.0043   -0.0011    0.0020
   46 O2     3d1-      -0.0000   -0.0000   -0.0000   -0.0002    0.0001    0.0005   -0.0009    0.0005   -0.0013   -0.0401
   47 O2     4d1-       0.0000   -0.0000   -0.0000   -0.0001    0.0000    0.0002    0.0000    0.0001   -0.0002   -0.0077
   48 O2     3d0        0.0009   -0.0007   -0.0007   -0.0167    0.0005   -0.0059   -0.0075   -0.0091   -0.0167    0.0055
   49 O2     4d0        0.0006   -0.0004   -0.0004   -0.0001    0.0001   -0.0003   -0.0006   -0.0009   -0.0015    0.0006
   50 O2     3d1+       0.0000    0.0000    0.0000    0.0003   -0.0002   -0.0003   -0.0252   -0.0009    0.0136    0.0017
   51 O2     4d1+      -0.0000    0.0000    0.0000    0.0001   -0.0000   -0.0001   -0.0030   -0.0001    0.0017    0.0003
   52 O2     3d2+       0.0004   -0.0005   -0.0006   -0.0099    0.0004    0.0028    0.0099    0.0063    0.0157    0.0088
   53 O2     4d2+       0.0002   -0.0003   -0.0003   -0.0008    0.0001    0.0007    0.0014    0.0008    0.0024    0.0017
   54 O2     4f3-       0.0000    0.0000   -0.0000    0.0000    0.0000    0.0000    0.0008   -0.0015    0.0009    0.0026
   55 O2     4f2-       0.0000   -0.0000   -0.0000    0.0001    0.0000   -0.0000   -0.0002    0.0001   -0.0003   -0.0070
   56 O2     4f1-       0.0000   -0.0001    0.0001   -0.0002    0.0064    0.0001    0.0014   -0.0057    0.0021   -0.0003
   57 O2     4f0       -0.0000   -0.0000   -0.0000   -0.0000    0.0000    0.0000    0.0073    0.0003   -0.0039   -0.0003
   58 O2     4f1+       0.0002   -0.0001   -0.0001   -0.0042    0.0000   -0.0008   -0.0020   -0.0020   -0.0038    0.0003
   59 O2     4f2+       0.0000    0.0000   -0.0000    0.0001    0.0000   -0.0001    0.0039    0.0002   -0.0021   -0.0002
   60 O2     4f3+       0.0002   -0.0002   -0.0002   -0.0090    0.0000   -0.0002   -0.0016   -0.0020   -0.0038    0.0018
   61 O3     1s         0.0037   -0.0051    0.9989   -0.0135   -0.0107    0.0118   -0.0091    0.0166   -0.0173    0.0020
   62 O3     2s         0.0040   -0.0002   -0.0072    0.3505    0.5917    0.6036   -0.1704    0.2831   -0.3053    0.0069
   63 O3     3s         0.0023   -0.0001   -0.0052   -0.0123   -0.0186    0.0200   -0.0201    0.0373   -0.0381    0.0078
   64 O3     4s         0.0004    0.0000   -0.0010   -0.0012   -0.0041    0.0031   -0.0044    0.0080   -0.0083    0.0023
   65 O3     2px       -0.0010   -0.0001    0.0019   -0.0525   -0.0487    0.0989   -0.0267    0.2132   -0.0692    0.0143
   66 O3     3px       -0.0007   -0.0002    0.0018    0.0126    0.0083   -0.0180    0.0028   -0.0313    0.0027   -0.0014
   67 O3     4px        0.0001   -0.0001   -0.0010    0.0023   -0.0000    0.0004    0.0003   -0.0018    0.0009   -0.0003
   68 O3     2py        0.0023   -0.0002   -0.0030    0.1103    0.0711   -0.1143    0.2144   -0.2040    0.3912   -0.1194
   69 O3     3py        0.0013   -0.0001   -0.0031   -0.0163   -0.0137    0.0186   -0.0217    0.0189   -0.0393    0.0048
   70 O3     4py       -0.0006    0.0000    0.0019   -0.0007   -0.0037   -0.0013   -0.0030    0.0019   -0.0054    0.0013
   71 O3     2pz       -0.0000    0.0000   -0.0000   -0.0029   -0.0022    0.0051   -0.2858   -0.0130    0.1699    0.6145
   72 O3     3pz        0.0000   -0.0000   -0.0000    0.0002    0.0003   -0.0001    0.0229    0.0005   -0.0118    0.0099
   73 O3     4pz        0.0000    0.0000    0.0000   -0.0000    0.0000   -0.0000    0.0046    0.0003   -0.0030   -0.0070
   74 O3     3d2-      -0.0004    0.0000    0.0014   -0.0165   -0.0144    0.0129   -0.0082    0.0232   -0.0152    0.0033
   75 O3     4d2-      -0.0002    0.0000    0.0008   -0.0018   -0.0017    0.0009   -0.0008    0.0020   -0.0015    0.0001
   76 O3     3d1-      -0.0000    0.0000   -0.0000   -0.0001   -0.0002    0.0000   -0.0209   -0.0011    0.0124    0.0175
   77 O3     4d1-      -0.0000   -0.0000    0.0000   -0.0000   -0.0000    0.0000   -0.0026   -0.0002    0.0017    0.0034
   78 O3     3d0       -0.0004   -0.0000    0.0008   -0.0108   -0.0089    0.0056   -0.0075    0.0106   -0.0141    0.0022
   79 O3     4d0       -0.0002   -0.0000    0.0005   -0.0004   -0.0012    0.0001   -0.0005    0.0008   -0.0011   -0.0000
   80 O3     3d1+       0.0000    0.0000    0.0000    0.0001    0.0001    0.0002    0.0124    0.0008   -0.0071   -0.0099
   81 O3     4d1+       0.0000    0.0000    0.0000    0.0000    0.0000    0.0001    0.0019    0.0001   -0.0010   -0.0015
   82 O3     3d2+      -0.0005    0.0000    0.0007   -0.0117   -0.0052    0.0027   -0.0121   -0.0018   -0.0238    0.0051
   83 O3     4d2+      -0.0003    0.0000    0.0004   -0.0013   -0.0009    0.0003   -0.0011   -0.0003   -0.0022    0.0006
   84 O3     4f3-      -0.0001   -0.0000   -0.0000   -0.0006    0.0011   -0.0014   -0.0018   -0.0038   -0.0036    0.0008
   85 O3     4f2-       0.0000    0.0000    0.0000    0.0000    0.0000    0.0001    0.0045    0.0003   -0.0027   -0.0035
   86 O3     4f1-      -0.0001   -0.0000    0.0002   -0.0034   -0.0029    0.0009   -0.0020    0.0021   -0.0035    0.0009
   87 O3     4f0        0.0000   -0.0000    0.0000   -0.0000   -0.0000    0.0000    0.0038    0.0003   -0.0023   -0.0027
   88 O3     4f1+       0.0000   -0.0000   -0.0001    0.0019    0.0019   -0.0010    0.0006   -0.0022    0.0010   -0.0003
   89 O3     4f2+       0.0000   -0.0000    0.0000   -0.0000    0.0000   -0.0000    0.0025    0.0002   -0.0017   -0.0018
   90 O3     4f3+       0.0000    0.0000   -0.0003    0.0054    0.0047   -0.0023    0.0027   -0.0041    0.0051   -0.0012
 
 
      Orbital               11        12        13        14        15        16        17        18        19        20
      Energy            0.0000    0.0000    0.0000    0.1763    0.1832    0.2376    0.2833    0.3480    0.3818    0.3933
      Occ. No.          1.3971    1.6715    0.9314    0.0000    0.0000    0.0000    0.0000    0.0000    0.0000    0.0000
 
    1 O1     1s        -0.0009   -0.0016    0.0000   -0.1958   -0.1355   -0.0008   -0.0098   -0.0142    0.0003   -0.0801
    2 O1     2s        -0.0030    0.0397   -0.0000   -1.4480   -0.9896   -0.0069   -0.1531   -0.0096    0.0012   -0.4453
    3 O1     3s        -0.0066   -0.0102    0.0001   -0.8410   -0.5648   -0.0027    0.0222   -0.0134    0.0051   -0.6282
    4 O1     4s        -0.0022   -0.0034    0.0001   -0.1896   -0.1179   -0.0005    0.0155    0.0023    0.0020   -0.1878
    5 O1     2px       -0.8105    0.0682    0.0607    0.4849    0.2490    0.0042    0.2071   -0.2578    0.0027   -0.1966
    6 O1     3px       -0.0067    0.0033   -0.0017    0.4554    0.3636    0.0000   -0.2251   -0.7853    0.0086   -0.5996
    7 O1     4px        0.0089   -0.0004   -0.0021    0.0464    0.0851   -0.0020   -0.1403   -0.3084    0.0012   -0.2289
    8 O1     2py        0.3700   -0.2417   -0.0279    0.5392    0.7547    0.0052    0.4579   -0.2624    0.0022    0.0718
    9 O1     3py        0.0083   -0.0010    0.0004    0.7223    0.6332    0.0076    0.4872   -0.1770    0.0061    0.3278
   10 O1     4py       -0.0031    0.0026    0.0008    0.1223    0.0562    0.0028    0.1683   -0.0321    0.0029    0.0344
   11 O1     2pz       -0.2585    0.0508    0.6041   -0.0008    0.0027    0.0727    0.0015    0.0006   -0.2047   -0.0086
   12 O1     3pz        0.0013    0.0019    0.0395    0.0030   -0.0001   -0.3761    0.0091    0.0030   -0.9521   -0.0170
   13 O1     4pz        0.0044   -0.0007    0.0018    0.0010    0.0003   -0.2020    0.0035    0.0005   -0.3747   -0.0070
   14 O1     3d2-       0.0128    0.0036   -0.0016   -0.0836   -0.0519   -0.0006    0.0021    0.0023   -0.0011    0.0066
   15 O1     4d2-       0.0021   -0.0002   -0.0003   -0.0531   -0.0357   -0.0003   -0.0038    0.0167   -0.0009    0.0120
   16 O1     3d1-       0.0084   -0.0011    0.0075   -0.0002    0.0001   -0.0118    0.0003    0.0000    0.0037    0.0009
   17 O1     4d1-       0.0017   -0.0003    0.0012   -0.0002    0.0000   -0.0038    0.0001   -0.0001    0.0106    0.0008
   18 O1     3d0       -0.0016   -0.0029    0.0004    0.0557    0.0443    0.0002   -0.0111   -0.0086    0.0002    0.0243
   19 O1     4d0        0.0002   -0.0001    0.0001    0.0364    0.0287    0.0002   -0.0028   -0.0125    0.0002    0.0079
   20 O1     3d1+       0.0046   -0.0010    0.0080    0.0003    0.0000   -0.0036    0.0001    0.0001    0.0167   -0.0005
   21 O1     4d1+       0.0008   -0.0002    0.0021    0.0003    0.0000    0.0009   -0.0000    0.0001    0.0140   -0.0005
   22 O1     3d2+       0.0127   -0.0105   -0.0019    0.0419    0.0484   -0.0004   -0.0285   -0.0005   -0.0002    0.0857
   23 O1     4d2+       0.0028   -0.0017   -0.0004    0.0254    0.0334   -0.0001   -0.0065   -0.0007   -0.0001    0.0494
   24 O1     4f3-      -0.0031    0.0018   -0.0004   -0.0005    0.0001   -0.0000   -0.0027   -0.0054    0.0001   -0.0128
   25 O1     4f2-       0.0003    0.0000   -0.0018   -0.0000    0.0002   -0.0030    0.0002   -0.0002   -0.0059   -0.0004
   26 O1     4f1-      -0.0002    0.0012    0.0000   -0.0064   -0.0044   -0.0001   -0.0013    0.0055   -0.0002   -0.0019
   27 O1     4f0        0.0033   -0.0005    0.0001   -0.0001    0.0001    0.0014   -0.0001   -0.0001    0.0058    0.0000
   28 O1     4f1+       0.0015    0.0003   -0.0002   -0.0027   -0.0031    0.0002   -0.0005    0.0053    0.0002    0.0008
   29 O1     4f2+      -0.0007    0.0002    0.0004    0.0001    0.0001    0.0009    0.0004   -0.0000    0.0023    0.0001
   30 O1     4f3+       0.0005    0.0021    0.0002   -0.0093   -0.0042   -0.0001   -0.0033    0.0086   -0.0001   -0.0018
   31 O2     1s        -0.0155   -0.0117    0.0003    0.0113    0.3181    0.0002    0.0902    0.0009    0.0013    0.0965
   32 O2     2s        -0.1825   -0.1429    0.0046    0.0817    2.3095    0.0034    0.7401    0.0059    0.0068    0.6046
   33 O2     3s        -0.0414   -0.0313    0.0013    0.0465    1.2994   -0.0011    0.2455    0.0062    0.0076    0.3385
   34 O2     4s        -0.0100   -0.0075    0.0003    0.0101    0.2783   -0.0002    0.0479    0.0018    0.0023    0.0321
   35 O2     2px        0.2807    0.2002   -0.0015    0.0284    0.8045    0.0047    0.4602    0.0016   -0.0042    0.5424
   36 O2     3px        0.0136    0.0127   -0.0001    0.0268    0.8616   -0.0053   -0.0584    0.0033   -0.0162    1.4631
   37 O2     4px        0.0012    0.0012   -0.0000    0.0035    0.1329   -0.0022   -0.1086    0.0010   -0.0054    0.3575
   38 O2     2py       -0.0226    0.0101   -0.0060    1.3135   -0.0446    0.0031   -0.0037   -0.1597    0.0001   -0.0105
   39 O2     3py       -0.0086    0.0169    0.0021    1.2759   -0.0492    0.0086   -0.0052    0.4154   -0.0002   -0.0006
   40 O2     4py       -0.0012    0.0024    0.0001    0.1280   -0.0060    0.0012   -0.0003    0.2209    0.0001   -0.0008
   41 O2     2pz       -0.0632   -0.0073   -0.7606    0.0016   -0.0021    0.0832   -0.0026   -0.0014    0.0094    0.0095
   42 O2     3pz       -0.0026    0.0011   -0.0799   -0.0000    0.0010   -0.2940    0.0034   -0.0021    0.0200    0.0109
   43 O2     4pz        0.0003    0.0001   -0.0017    0.0003    0.0004   -0.1810    0.0024   -0.0003    0.0067    0.0026
   44 O2     3d2-      -0.0189    0.0256    0.0005    0.1466   -0.0058    0.0019    0.0000    0.0739    0.0002    0.0026
   45 O2     4d2-      -0.0035    0.0049    0.0002    0.0896   -0.0036    0.0010   -0.0001    0.0590    0.0001    0.0013
   46 O2     3d1-      -0.0155    0.0037   -0.0048   -0.0000   -0.0001   -0.0001   -0.0002    0.0001    0.0880    0.0010
   47 O2     4d1-      -0.0029    0.0008   -0.0012   -0.0000   -0.0001    0.0001   -0.0001    0.0000    0.0546    0.0007
   48 O2     3d0       -0.0116   -0.0092    0.0003   -0.0029   -0.0833    0.0011    0.0376   -0.0005    0.0004   -0.1310
   49 O2     4d0       -0.0012   -0.0010   -0.0000   -0.0018   -0.0534    0.0006    0.0197   -0.0003    0.0005   -0.0791
   50 O2     3d1+      -0.0018    0.0003    0.0012    0.0001    0.0000    0.0268   -0.0000    0.0002   -0.0003    0.0002
   51 O2     4d1+      -0.0003    0.0001    0.0007    0.0000   -0.0000    0.0111    0.0000    0.0001    0.0001    0.0001
   52 O2     3d2+      -0.0294   -0.0233    0.0017   -0.0016   -0.0480    0.0013    0.0716   -0.0001   -0.0004    0.0138
   53 O2     4d2+      -0.0054   -0.0042    0.0002   -0.0009   -0.0247    0.0005    0.0316   -0.0001   -0.0003    0.0274
   54 O2     4f3-      -0.0052    0.0078    0.0004   -0.0046    0.0001    0.0000    0.0001    0.0053   -0.0000    0.0000
   55 O2     4f2-      -0.0028    0.0006   -0.0005    0.0000   -0.0000    0.0000   -0.0000    0.0000    0.0071    0.0000
   56 O2     4f1-       0.0002    0.0000    0.0003   -0.0084    0.0004   -0.0000    0.0000   -0.0112   -0.0000   -0.0000
   57 O2     4f0        0.0006    0.0001    0.0002    0.0000   -0.0000    0.0021   -0.0001    0.0000   -0.0002   -0.0001
   58 O2     4f1+      -0.0003    0.0000   -0.0003   -0.0002   -0.0075    0.0001    0.0034   -0.0000    0.0001   -0.0147
   59 O2     4f2+       0.0003   -0.0001    0.0013    0.0000    0.0000    0.0012    0.0000    0.0000   -0.0001   -0.0001
   60 O2     4f3+      -0.0045   -0.0034    0.0001   -0.0004   -0.0124    0.0002    0.0055   -0.0001    0.0001   -0.0177
[...]

>>> COPY /tmp/ozone_117.50/GMJ_IVECC2_E_P_2_.csv /home/grierjones/DDCASPT2/ozone/multistate/ANO-RCC-VTZP/ozone_117.50/GMJ_IVECC2_E_P_2_.csv

>>> COPY /tmp/ozone_117.50/GMJ_e2_E_P_2_.csv /home/grierjones/DDCASPT2/ozone/multistate/ANO-RCC-VTZP/ozone_117.50/GMJ_e2_E_P_2_.csv

>>> END FOREACH

>>> EXPORT j = M

>>> IF (-FILE GMJ_e2_${i}_${j}_${k}_.csv)

>>> COPY /tmp/ozone_117.50/GMJ_RHS_E_M_2_.csv /home/grierjones/DDCASPT2/ozone/multistate/ANO-RCC-VTZP/ozone_117.50/GMJ_RHS_E_M_2_.csv

>>> COPY /tmp/ozone_117.50/GMJ_IVECW_E_M_2_.csv /home/grierjones/DDCASPT2/ozone/multistate/ANO-RCC-VTZP/ozone_117.50/GMJ_IVECW_E_M_2_.csv

>>> COPY /tmp/ozone_117.50/GMJ_IVECX_E_M_2_.csv /home/grierjones/DDCASPT2/ozone/multistate/ANO-RCC-VTZP/ozone_117.50/GMJ_IVECX_E_M_2_.csv

>>> COPY /tmp/ozone_117.50/GMJ_IVECC2_E_M_2_.csv /home/grierjones/DDCASPT2/ozone/multistate/ANO-RCC-VTZP/ozone_117.50/GMJ_IVECC2_E_M_2_.csv

>>> COPY /tmp/ozone_117.50/GMJ_e2_E_M_2_.csv /home/grierjones/DDCASPT2/ozone/multistate/ANO-RCC-VTZP/ozone_117.50/GMJ_e2_E_M_2_.csv

>>> END FOREACH

>>> END FOREACH

>>> EXPORT i = F

>>> EXPORT j = P

>>> IF (-FILE GMJ_e2_${i}_${j}_${k}_.csv)

>>> COPY /tmp/ozone_117.50/GMJ_RHS_F_P_2_.csv /home/grierjones/DDCASPT2/ozone/multistate/ANO-RCC-VTZP/ozone_117.50/GMJ_RHS_F_P_2_.csv

>>> COPY /tmp/ozone_117.50/GMJ_IVECW_F_P_2_.csv /home/grierjones/DDCASPT2/ozone/multistate/ANO-RCC-VTZP/ozone_117.50/GMJ_IVECW_F_P_2_.csv

>>> COPY /tmp/ozone_117.50/GMJ_IVECX_F_P_2_.csv /home/grierjones/DDCASPT2/ozone/multistate/ANO-RCC-VTZP/ozone_117.50/GMJ_IVECX_F_P_2_.csv

>>> COPY /tmp/ozone_117.50/GMJ_IVECC2_F_P_2_.csv /home/grierjones/DDCASPT2/ozone/multistate/ANO-RCC-VTZP/ozone_117.50/GMJ_IVECC2_F_P_2_.csv

>>> COPY /tmp/ozone_117.50/GMJ_e2_F_P_2_.csv /home/grierjones/DDCASPT2/ozone/multistate/ANO-RCC-VTZP/ozone_117.50/GMJ_e2_F_P_2_.csv

>>> END FOREACH

>>> EXPORT j = M

>>> IF (-FILE GMJ_e2_${i}_${j}_${k}_.csv)

>>> COPY /tmp/ozone_117.50/GMJ_RHS_F_M_2_.csv /home/grierjones/DDCASPT2/ozone/multistate/ANO-RCC-VTZP/ozone_117.50/GMJ_RHS_F_M_2_.csv

>>> COPY /tmp/ozone_117.50/GMJ_IVECW_F_M_2_.csv /home/grierjones/DDCASPT2/ozone/multistate/ANO-RCC-VTZP/ozone_117.50/GMJ_IVECW_F_M_2_.csv

>>> COPY /tmp/ozone_117.50/GMJ_IVECX_F_M_2_.csv /home/grierjones/DDCASPT2/ozone/multistate/ANO-RCC-VTZP/ozone_117.50/GMJ_IVECX_F_M_2_.csv

>>> COPY /tmp/ozone_117.50/GMJ_IVECC2_F_M_2_.csv /home/grierjones/DDCASPT2/ozone/multistate/ANO-RCC-VTZP/ozone_117.50/GMJ_IVECC2_F_M_2_.csv

>>> COPY /tmp/ozone_117.50/GMJ_e2_F_M_2_.csv /home/grierjones/DDCASPT2/ozone/multistate/ANO-RCC-VTZP/ozone_117.50/GMJ_e2_F_M_2_.csv

>>> END FOREACH

>>> END FOREACH

>>> EXPORT i = G

>>> EXPORT j = P

>>> IF (-FILE GMJ_e2_${i}_${j}_${k}_.csv)

>>> COPY /tmp/ozone_117.50/GMJ_RHS_G_P_2_.csv /home/grierjones/DDCASPT2/ozone/multistate/ANO-RCC-VTZP/ozone_117.50/GMJ_RHS_G_P_2_.csv

>>> COPY /tmp/ozone_117.50/GMJ_IVECW_G_P_2_.csv /home/grierjones/DDCASPT2/ozone/multistate/ANO-RCC-VTZP/ozone_117.50/GMJ_IVECW_G_P_2_.csv

>>> COPY /tmp/ozone_117.50/GMJ_IVECX_G_P_2_.csv /home/grierjones/DDCASPT2/ozone/multistate/ANO-RCC-VTZP/ozone_117.50/GMJ_IVECX_G_P_2_.csv

>>> COPY /tmp/ozone_117.50/GMJ_IVECC2_G_P_2_.csv /home/grierjones/DDCASPT2/ozone/multistate/ANO-RCC-VTZP/ozone_117.50/GMJ_IVECC2_G_P_2_.csv

>>> COPY /tmp/ozone_117.50/GMJ_e2_G_P_2_.csv /home/grierjones/DDCASPT2/ozone/multistate/ANO-RCC-VTZP/ozone_117.50/GMJ_e2_G_P_2_.csv

>>> END FOREACH

>>> EXPORT j = M

>>> IF (-FILE GMJ_e2_${i}_${j}_${k}_.csv)

>>> COPY /tmp/ozone_117.50/GMJ_RHS_G_M_2_.csv /home/grierjones/DDCASPT2/ozone/multistate/ANO-RCC-VTZP/ozone_117.50/GMJ_RHS_G_M_2_.csv

>>> COPY /tmp/ozone_117.50/GMJ_IVECW_G_M_2_.csv /home/grierjones/DDCASPT2/ozone/multistate/ANO-RCC-VTZP/ozone_117.50/GMJ_IVECW_G_M_2_.csv

>>> COPY /tmp/ozone_117.50/GMJ_IVECX_G_M_2_.csv /home/grierjones/DDCASPT2/ozone/multistate/ANO-RCC-VTZP/ozone_117.50/GMJ_IVECX_G_M_2_.csv

>>> COPY /tmp/ozone_117.50/GMJ_IVECC2_G_M_2_.csv /home/grierjones/DDCASPT2/ozone/multistate/ANO-RCC-VTZP/ozone_117.50/GMJ_IVECC2_G_M_2_.csv

>>> COPY /tmp/ozone_117.50/GMJ_e2_G_M_2_.csv /home/grierjones/DDCASPT2/ozone/multistate/ANO-RCC-VTZP/ozone_117.50/GMJ_e2_G_M_2_.csv

>>> END FOREACH

>>> END FOREACH

>>> EXPORT i = H

>>> EXPORT j = P

>>> IF (-FILE GMJ_e2_${i}_${j}_${k}_.csv)

>>> COPY /tmp/ozone_117.50/GMJ_RHS_H_P_2_.csv /home/grierjones/DDCASPT2/ozone/multistate/ANO-RCC-VTZP/ozone_117.50/GMJ_RHS_H_P_2_.csv

>>> COPY /tmp/ozone_117.50/GMJ_IVECW_H_P_2_.csv /home/grierjones/DDCASPT2/ozone/multistate/ANO-RCC-VTZP/ozone_117.50/GMJ_IVECW_H_P_2_.csv

>>> COPY /tmp/ozone_117.50/GMJ_IVECX_H_P_2_.csv /home/grierjones/DDCASPT2/ozone/multistate/ANO-RCC-VTZP/ozone_117.50/GMJ_IVECX_H_P_2_.csv

>>> COPY /tmp/ozone_117.50/GMJ_IVECC2_H_P_2_.csv /home/grierjones/DDCASPT2/ozone/multistate/ANO-RCC-VTZP/ozone_117.50/GMJ_IVECC2_H_P_2_.csv

>>> COPY /tmp/ozone_117.50/GMJ_e2_H_P_2_.csv /home/grierjones/DDCASPT2/ozone/multistate/ANO-RCC-VTZP/ozone_117.50/GMJ_e2_H_P_2_.csv

>>> END FOREACH

>>> EXPORT j = M

>>> IF (-FILE GMJ_e2_${i}_${j}_${k}_.csv)

>>> COPY /tmp/ozone_117.50/GMJ_RHS_H_M_2_.csv /home/grierjones/DDCASPT2/ozone/multistate/ANO-RCC-VTZP/ozone_117.50/GMJ_RHS_H_M_2_.csv

>>> COPY /tmp/ozone_117.50/GMJ_IVECW_H_M_2_.csv /home/grierjones/DDCASPT2/ozone/multistate/ANO-RCC-VTZP/ozone_117.50/GMJ_IVECW_H_M_2_.csv

>>> COPY /tmp/ozone_117.50/GMJ_IVECX_H_M_2_.csv /home/grierjones/DDCASPT2/ozone/multistate/ANO-RCC-VTZP/ozone_117.50/GMJ_IVECX_H_M_2_.csv

>>> COPY /tmp/ozone_117.50/GMJ_IVECC2_H_M_2_.csv /home/grierjones/DDCASPT2/ozone/multistate/ANO-RCC-VTZP/ozone_117.50/GMJ_IVECC2_H_M_2_.csv

>>> COPY /tmp/ozone_117.50/GMJ_e2_H_M_2_.csv /home/grierjones/DDCASPT2/ozone/multistate/ANO-RCC-VTZP/ozone_117.50/GMJ_e2_H_M_2_.csv

>>> END FOREACH

>>> END FOREACH

>>> END FOREACH

>>> EXPORT k = 3

>>> EXPORT i = B

>>> EXPORT j = P

>>> IF (-FILE GMJ_e2_${i}_${j}_${k}_.csv)

>>> COPY /tmp/ozone_117.50/GMJ_RHS_B_P_3_.csv /home/grierjones/DDCASPT2/ozone/multistate/ANO-RCC-VTZP/ozone_117.50/GMJ_RHS_B_P_3_.csv

>>> COPY /tmp/ozone_117.50/GMJ_IVECW_B_P_3_.csv /home/grierjones/DDCASPT2/ozone/multistate/ANO-RCC-VTZP/ozone_117.50/GMJ_IVECW_B_P_3_.csv

>>> COPY /tmp/ozone_117.50/GMJ_IVECX_B_P_3_.csv /home/grierjones/DDCASPT2/ozone/multistate/ANO-RCC-VTZP/ozone_117.50/GMJ_IVECX_B_P_3_.csv

>>> COPY /tmp/ozone_117.50/GMJ_IVECC2_B_P_3_.csv /home/grierjones/DDCASPT2/ozone/multistate/ANO-RCC-VTZP/ozone_117.50/GMJ_IVECC2_B_P_3_.csv

>>> COPY /tmp/ozone_117.50/GMJ_e2_B_P_3_.csv /home/grierjones/DDCASPT2/ozone/multistate/ANO-RCC-VTZP/ozone_117.50/GMJ_e2_B_P_3_.csv

>>> END FOREACH

>>> EXPORT j = M

>>> IF (-FILE GMJ_e2_${i}_${j}_${k}_.csv)
(Skipped)

>>> END FOREACH

>>> END FOREACH

>>> EXPORT i = E

>>> EXPORT j = P

>>> IF (-FILE GMJ_e2_${i}_${j}_${k}_.csv)

>>> COPY /tmp/ozone_117.50/GMJ_RHS_E_P_3_.csv /home/grierjones/DDCASPT2/ozone/multistate/ANO-RCC-VTZP/ozone_117.50/GMJ_RHS_E_P_3_.csv

>>> COPY /tmp/ozone_117.50/GMJ_IVECW_E_P_3_.csv /home/grierjones/DDCASPT2/ozone/multistate/ANO-RCC-VTZP/ozone_117.50/GMJ_IVECW_E_P_3_.csv

>>> COPY /tmp/ozone_117.50/GMJ_IVECX_E_P_3_.csv /home/grierjones/DDCASPT2/ozone/multistate/ANO-RCC-VTZP/ozone_117.50/GMJ_IVECX_E_P_3_.csv

>>> COPY /tmp/ozone_117.50/GMJ_IVECC2_E_P_3_.csv /home/grierjones/DDCASPT2/ozone/multistate/ANO-RCC-VTZP/ozone_117.50/GMJ_IVECC2_E_P_3_.csv

>>> COPY /tmp/ozone_117.50/GMJ_e2_E_P_3_.csv /home/grierjones/DDCASPT2/ozone/multistate/ANO-RCC-VTZP/ozone_117.50/GMJ_e2_E_P_3_.csv

>>> END FOREACH

>>> EXPORT j = M

>>> IF (-FILE GMJ_e2_${i}_${j}_${k}_.csv)

>>> COPY /tmp/ozone_117.50/GMJ_RHS_E_M_3_.csv /home/grierjones/DDCASPT2/ozone/multistate/ANO-RCC-VTZP/ozone_117.50/GMJ_RHS_E_M_3_.csv

>>> COPY /tmp/ozone_117.50/GMJ_IVECW_E_M_3_.csv /home/grierjones/DDCASPT2/ozone/multistate/ANO-RCC-VTZP/ozone_117.50/GMJ_IVECW_E_M_3_.csv

>>> COPY /tmp/ozone_117.50/GMJ_IVECX_E_M_3_.csv /home/grierjones/DDCASPT2/ozone/multistate/ANO-RCC-VTZP/ozone_117.50/GMJ_IVECX_E_M_3_.csv

>>> COPY /tmp/ozone_117.50/GMJ_IVECC2_E_M_3_.csv /home/grierjones/DDCASPT2/ozone/multistate/ANO-RCC-VTZP/ozone_117.50/GMJ_IVECC2_E_M_3_.csv

>>> COPY /tmp/ozone_117.50/GMJ_e2_E_M_3_.csv /home/grierjones/DDCASPT2/ozone/multistate/ANO-RCC-VTZP/ozone_117.50/GMJ_e2_E_M_3_.csv

>>> END FOREACH

>>> END FOREACH

>>> EXPORT i = F

>>> EXPORT j = P

>>> IF (-FILE GMJ_e2_${i}_${j}_${k}_.csv)

>>> COPY /tmp/ozone_117.50/GMJ_RHS_F_P_3_.csv /home/grierjones/DDCASPT2/ozone/multistate/ANO-RCC-VTZP/ozone_117.50/GMJ_RHS_F_P_3_.csv

>>> COPY /tmp/ozone_117.50/GMJ_IVECW_F_P_3_.csv /home/grierjones/DDCASPT2/ozone/multistate/ANO-RCC-VTZP/ozone_117.50/GMJ_IVECW_F_P_3_.csv

>>> COPY /tmp/ozone_117.50/GMJ_IVECX_F_P_3_.csv /home/grierjones/DDCASPT2/ozone/multistate/ANO-RCC-VTZP/ozone_117.50/GMJ_IVECX_F_P_3_.csv

>>> COPY /tmp/ozone_117.50/GMJ_IVECC2_F_P_3_.csv /home/grierjones/DDCASPT2/ozone/multistate/ANO-RCC-VTZP/ozone_117.50/GMJ_IVECC2_F_P_3_.csv

>>> COPY /tmp/ozone_117.50/GMJ_e2_F_P_3_.csv /home/grierjones/DDCASPT2/ozone/multistate/ANO-RCC-VTZP/ozone_117.50/GMJ_e2_F_P_3_.csv

>>> END FOREACH

>>> EXPORT j = M

>>> IF (-FILE GMJ_e2_${i}_${j}_${k}_.csv)

>>> COPY /tmp/ozone_117.50/GMJ_RHS_F_M_3_.csv /home/grierjones/DDCASPT2/ozone/multistate/ANO-RCC-VTZP/ozone_117.50/GMJ_RHS_F_M_3_.csv

>>> COPY /tmp/ozone_117.50/GMJ_IVECW_F_M_3_.csv /home/grierjones/DDCASPT2/ozone/multistate/ANO-RCC-VTZP/ozone_117.50/GMJ_IVECW_F_M_3_.csv

>>> COPY /tmp/ozone_117.50/GMJ_IVECX_F_M_3_.csv /home/grierjones/DDCASPT2/ozone/multistate/ANO-RCC-VTZP/ozone_117.50/GMJ_IVECX_F_M_3_.csv

>>> COPY /tmp/ozone_117.50/GMJ_IVECC2_F_M_3_.csv /home/grierjones/DDCASPT2/ozone/multistate/ANO-RCC-VTZP/ozone_117.50/GMJ_IVECC2_F_M_3_.csv

>>> COPY /tmp/ozone_117.50/GMJ_e2_F_M_3_.csv /home/grierjones/DDCASPT2/ozone/multistate/ANO-RCC-VTZP/ozone_117.50/GMJ_e2_F_M_3_.csv

>>> END FOREACH

>>> END FOREACH

>>> EXPORT i = G

>>> EXPORT j = P

>>> IF (-FILE GMJ_e2_${i}_${j}_${k}_.csv)

>>> COPY /tmp/ozone_117.50/GMJ_RHS_G_P_3_.csv /home/grierjones/DDCASPT2/ozone/multistate/ANO-RCC-VTZP/ozone_117.50/GMJ_RHS_G_P_3_.csv

>>> COPY /tmp/ozone_117.50/GMJ_IVECW_G_P_3_.csv /home/grierjones/DDCASPT2/ozone/multistate/ANO-RCC-VTZP/ozone_117.50/GMJ_IVECW_G_P_3_.csv

>>> COPY /tmp/ozone_117.50/GMJ_IVECX_G_P_3_.csv /home/grierjones/DDCASPT2/ozone/multistate/ANO-RCC-VTZP/ozone_117.50/GMJ_IVECX_G_P_3_.csv

>>> COPY /tmp/ozone_117.50/GMJ_IVECC2_G_P_3_.csv /home/grierjones/DDCASPT2/ozone/multistate/ANO-RCC-VTZP/ozone_117.50/GMJ_IVECC2_G_P_3_.csv

>>> COPY /tmp/ozone_117.50/GMJ_e2_G_P_3_.csv /home/grierjones/DDCASPT2/ozone/multistate/ANO-RCC-VTZP/ozone_117.50/GMJ_e2_G_P_3_.csv

>>> END FOREACH

>>> EXPORT j = M

>>> IF (-FILE GMJ_e2_${i}_${j}_${k}_.csv)

>>> COPY /tmp/ozone_117.50/GMJ_RHS_G_M_3_.csv /home/grierjones/DDCASPT2/ozone/multistate/ANO-RCC-VTZP/ozone_117.50/GMJ_RHS_G_M_3_.csv

>>> COPY /tmp/ozone_117.50/GMJ_IVECW_G_M_3_.csv /home/grierjones/DDCASPT2/ozone/multistate/ANO-RCC-VTZP/ozone_117.50/GMJ_IVECW_G_M_3_.csv

>>> COPY /tmp/ozone_117.50/GMJ_IVECX_G_M_3_.csv /home/grierjones/DDCASPT2/ozone/multistate/ANO-RCC-VTZP/ozone_117.50/GMJ_IVECX_G_M_3_.csv

>>> COPY /tmp/ozone_117.50/GMJ_IVECC2_G_M_3_.csv /home/grierjones/DDCASPT2/ozone/multistate/ANO-RCC-VTZP/ozone_117.50/GMJ_IVECC2_G_M_3_.csv

>>> COPY /tmp/ozone_117.50/GMJ_e2_G_M_3_.csv /home/grierjones/DDCASPT2/ozone/multistate/ANO-RCC-VTZP/ozone_117.50/GMJ_e2_G_M_3_.csv

>>> END FOREACH

>>> END FOREACH

>>> EXPORT i = H

>>> EXPORT j = P

>>> IF (-FILE GMJ_e2_${i}_${j}_${k}_.csv)

>>> COPY /tmp/ozone_117.50/GMJ_RHS_H_P_3_.csv /home/grierjones/DDCASPT2/ozone/multistate/ANO-RCC-VTZP/ozone_117.50/GMJ_RHS_H_P_3_.csv

>>> COPY /tmp/ozone_117.50/GMJ_IVECW_H_P_3_.csv /home/grierjones/DDCASPT2/ozone/multistate/ANO-RCC-VTZP/ozone_117.50/GMJ_IVECW_H_P_3_.csv

>>> COPY /tmp/ozone_117.50/GMJ_IVECX_H_P_3_.csv /home/grierjones/DDCASPT2/ozone/multistate/ANO-RCC-VTZP/ozone_117.50/GMJ_IVECX_H_P_3_.csv

>>> COPY /tmp/ozone_117.50/GMJ_IVECC2_H_P_3_.csv /home/grierjones/DDCASPT2/ozone/multistate/ANO-RCC-VTZP/ozone_117.50/GMJ_IVECC2_H_P_3_.csv

>>> COPY /tmp/ozone_117.50/GMJ_e2_H_P_3_.csv /home/grierjones/DDCASPT2/ozone/multistate/ANO-RCC-VTZP/ozone_117.50/GMJ_e2_H_P_3_.csv

>>> END FOREACH

>>> EXPORT j = M

>>> IF (-FILE GMJ_e2_${i}_${j}_${k}_.csv)

>>> COPY /tmp/ozone_117.50/GMJ_RHS_H_M_3_.csv /home/grierjones/DDCASPT2/ozone/multistate/ANO-RCC-VTZP/ozone_117.50/GMJ_RHS_H_M_3_.csv

>>> COPY /tmp/ozone_117.50/GMJ_IVECW_H_M_3_.csv /home/grierjones/DDCASPT2/ozone/multistate/ANO-RCC-VTZP/ozone_117.50/GMJ_IVECW_H_M_3_.csv

>>> COPY /tmp/ozone_117.50/GMJ_IVECX_H_M_3_.csv /home/grierjones/DDCASPT2/ozone/multistate/ANO-RCC-VTZP/ozone_117.50/GMJ_IVECX_H_M_3_.csv

>>> COPY /tmp/ozone_117.50/GMJ_IVECC2_H_M_3_.csv /home/grierjones/DDCASPT2/ozone/multistate/ANO-RCC-VTZP/ozone_117.50/GMJ_IVECC2_H_M_3_.csv

>>> COPY /tmp/ozone_117.50/GMJ_e2_H_M_3_.csv /home/grierjones/DDCASPT2/ozone/multistate/ANO-RCC-VTZP/ozone_117.50/GMJ_e2_H_M_3_.csv

>>> END FOREACH

>>> END FOREACH

>>> END FOREACH

>>> EXPORT j = 1

>>> EXPORT i = A

>>> IF (-FILE GMJ_e2_${i}_${j}_.csv)

>>> COPY /tmp/ozone_117.50/GMJ_RHS_A_1_.csv /home/grierjones/DDCASPT2/ozone/multistate/ANO-RCC-VTZP/ozone_117.50/GMJ_RHS_A_1_.csv

>>> COPY /tmp/ozone_117.50/GMJ_IVECW_A_1_.csv /home/grierjones/DDCASPT2/ozone/multistate/ANO-RCC-VTZP/ozone_117.50/GMJ_IVECW_A_1_.csv

>>> COPY /tmp/ozone_117.50/GMJ_IVECX_A_1_.csv /home/grierjones/DDCASPT2/ozone/multistate/ANO-RCC-VTZP/ozone_117.50/GMJ_IVECX_A_1_.csv

>>> COPY /tmp/ozone_117.50/GMJ_IVECC2_A_1_.csv /home/grierjones/DDCASPT2/ozone/multistate/ANO-RCC-VTZP/ozone_117.50/GMJ_IVECC2_A_1_.csv

>>> COPY /tmp/ozone_117.50/GMJ_e2_A_1_.csv /home/grierjones/DDCASPT2/ozone/multistate/ANO-RCC-VTZP/ozone_117.50/GMJ_e2_A_1_.csv

>>> END FOREACH

>>> EXPORT i = C

>>> IF (-FILE GMJ_e2_${i}_${j}_.csv)

>>> COPY /tmp/ozone_117.50/GMJ_RHS_C_1_.csv /home/grierjones/DDCASPT2/ozone/multistate/ANO-RCC-VTZP/ozone_117.50/GMJ_RHS_C_1_.csv

>>> COPY /tmp/ozone_117.50/GMJ_IVECW_C_1_.csv /home/grierjones/DDCASPT2/ozone/multistate/ANO-RCC-VTZP/ozone_117.50/GMJ_IVECW_C_1_.csv

>>> COPY /tmp/ozone_117.50/GMJ_IVECX_C_1_.csv /home/grierjones/DDCASPT2/ozone/multistate/ANO-RCC-VTZP/ozone_117.50/GMJ_IVECX_C_1_.csv

>>> COPY /tmp/ozone_117.50/GMJ_IVECC2_C_1_.csv /home/grierjones/DDCASPT2/ozone/multistate/ANO-RCC-VTZP/ozone_117.50/GMJ_IVECC2_C_1_.csv

>>> COPY /tmp/ozone_117.50/GMJ_e2_C_1_.csv /home/grierjones/DDCASPT2/ozone/multistate/ANO-RCC-VTZP/ozone_117.50/GMJ_e2_C_1_.csv

>>> END FOREACH

>>> EXPORT i = D

>>> IF (-FILE GMJ_e2_${i}_${j}_.csv)

>>> COPY /tmp/ozone_117.50/GMJ_RHS_D_1_.csv /home/grierjones/DDCASPT2/ozone/multistate/ANO-RCC-VTZP/ozone_117.50/GMJ_RHS_D_1_.csv

>>> COPY /tmp/ozone_117.50/GMJ_IVECW_D_1_.csv /home/grierjones/DDCASPT2/ozone/multistate/ANO-RCC-VTZP/ozone_117.50/GMJ_IVECW_D_1_.csv

>>> COPY /tmp/ozone_117.50/GMJ_IVECX_D_1_.csv /home/grierjones/DDCASPT2/ozone/multistate/ANO-RCC-VTZP/ozone_117.50/GMJ_IVECX_D_1_.csv

>>> COPY /tmp/ozone_117.50/GMJ_IVECC2_D_1_.csv /home/grierjones/DDCASPT2/ozone/multistate/ANO-RCC-VTZP/ozone_117.50/GMJ_IVECC2_D_1_.csv

>>> COPY /tmp/ozone_117.50/GMJ_e2_D_1_.csv /home/grierjones/DDCASPT2/ozone/multistate/ANO-RCC-VTZP/ozone_117.50/GMJ_e2_D_1_.csv

>>> END FOREACH

>>> END FOREACH

>>> EXPORT j = 2

>>> EXPORT i = A

>>> IF (-FILE GMJ_e2_${i}_${j}_.csv)

>>> COPY /tmp/ozone_117.50/GMJ_RHS_A_2_.csv /home/grierjones/DDCASPT2/ozone/multistate/ANO-RCC-VTZP/ozone_117.50/GMJ_RHS_A_2_.csv

>>> COPY /tmp/ozone_117.50/GMJ_IVECW_A_2_.csv /home/grierjones/DDCASPT2/ozone/multistate/ANO-RCC-VTZP/ozone_117.50/GMJ_IVECW_A_2_.csv

>>> COPY /tmp/ozone_117.50/GMJ_IVECX_A_2_.csv /home/grierjones/DDCASPT2/ozone/multistate/ANO-RCC-VTZP/ozone_117.50/GMJ_IVECX_A_2_.csv

>>> COPY /tmp/ozone_117.50/GMJ_IVECC2_A_2_.csv /home/grierjones/DDCASPT2/ozone/multistate/ANO-RCC-VTZP/ozone_117.50/GMJ_IVECC2_A_2_.csv

>>> COPY /tmp/ozone_117.50/GMJ_e2_A_2_.csv /home/grierjones/DDCASPT2/ozone/multistate/ANO-RCC-VTZP/ozone_117.50/GMJ_e2_A_2_.csv

>>> END FOREACH

>>> EXPORT i = C

>>> IF (-FILE GMJ_e2_${i}_${j}_.csv)

>>> COPY /tmp/ozone_117.50/GMJ_RHS_C_2_.csv /home/grierjones/DDCASPT2/ozone/multistate/ANO-RCC-VTZP/ozone_117.50/GMJ_RHS_C_2_.csv

>>> COPY /tmp/ozone_117.50/GMJ_IVECW_C_2_.csv /home/grierjones/DDCASPT2/ozone/multistate/ANO-RCC-VTZP/ozone_117.50/GMJ_IVECW_C_2_.csv

>>> COPY /tmp/ozone_117.50/GMJ_IVECX_C_2_.csv /home/grierjones/DDCASPT2/ozone/multistate/ANO-RCC-VTZP/ozone_117.50/GMJ_IVECX_C_2_.csv

>>> COPY /tmp/ozone_117.50/GMJ_IVECC2_C_2_.csv /home/grierjones/DDCASPT2/ozone/multistate/ANO-RCC-VTZP/ozone_117.50/GMJ_IVECC2_C_2_.csv

>>> COPY /tmp/ozone_117.50/GMJ_e2_C_2_.csv /home/grierjones/DDCASPT2/ozone/multistate/ANO-RCC-VTZP/ozone_117.50/GMJ_e2_C_2_.csv

>>> END FOREACH

>>> EXPORT i = D

>>> IF (-FILE GMJ_e2_${i}_${j}_.csv)

>>> COPY /tmp/ozone_117.50/GMJ_RHS_D_2_.csv /home/grierjones/DDCASPT2/ozone/multistate/ANO-RCC-VTZP/ozone_117.50/GMJ_RHS_D_2_.csv

>>> COPY /tmp/ozone_117.50/GMJ_IVECW_D_2_.csv /home/grierjones/DDCASPT2/ozone/multistate/ANO-RCC-VTZP/ozone_117.50/GMJ_IVECW_D_2_.csv

>>> COPY /tmp/ozone_117.50/GMJ_IVECX_D_2_.csv /home/grierjones/DDCASPT2/ozone/multistate/ANO-RCC-VTZP/ozone_117.50/GMJ_IVECX_D_2_.csv

>>> COPY /tmp/ozone_117.50/GMJ_IVECC2_D_2_.csv /home/grierjones/DDCASPT2/ozone/multistate/ANO-RCC-VTZP/ozone_117.50/GMJ_IVECC2_D_2_.csv

>>> COPY /tmp/ozone_117.50/GMJ_e2_D_2_.csv /home/grierjones/DDCASPT2/ozone/multistate/ANO-RCC-VTZP/ozone_117.50/GMJ_e2_D_2_.csv

>>> END FOREACH

>>> END FOREACH

>>> EXPORT j = 3

>>> EXPORT i = A

>>> IF (-FILE GMJ_e2_${i}_${j}_.csv)

>>> COPY /tmp/ozone_117.50/GMJ_RHS_A_3_.csv /home/grierjones/DDCASPT2/ozone/multistate/ANO-RCC-VTZP/ozone_117.50/GMJ_RHS_A_3_.csv

>>> COPY /tmp/ozone_117.50/GMJ_IVECW_A_3_.csv /home/grierjones/DDCASPT2/ozone/multistate/ANO-RCC-VTZP/ozone_117.50/GMJ_IVECW_A_3_.csv

>>> COPY /tmp/ozone_117.50/GMJ_IVECX_A_3_.csv /home/grierjones/DDCASPT2/ozone/multistate/ANO-RCC-VTZP/ozone_117.50/GMJ_IVECX_A_3_.csv

>>> COPY /tmp/ozone_117.50/GMJ_IVECC2_A_3_.csv /home/grierjones/DDCASPT2/ozone/multistate/ANO-RCC-VTZP/ozone_117.50/GMJ_IVECC2_A_3_.csv

>>> COPY /tmp/ozone_117.50/GMJ_e2_A_3_.csv /home/grierjones/DDCASPT2/ozone/multistate/ANO-RCC-VTZP/ozone_117.50/GMJ_e2_A_3_.csv

>>> END FOREACH

>>> EXPORT i = C

>>> IF (-FILE GMJ_e2_${i}_${j}_.csv)

>>> COPY /tmp/ozone_117.50/GMJ_RHS_C_3_.csv /home/grierjones/DDCASPT2/ozone/multistate/ANO-RCC-VTZP/ozone_117.50/GMJ_RHS_C_3_.csv

>>> COPY /tmp/ozone_117.50/GMJ_IVECW_C_3_.csv /home/grierjones/DDCASPT2/ozone/multistate/ANO-RCC-VTZP/ozone_117.50/GMJ_IVECW_C_3_.csv

>>> COPY /tmp/ozone_117.50/GMJ_IVECX_C_3_.csv /home/grierjones/DDCASPT2/ozone/multistate/ANO-RCC-VTZP/ozone_117.50/GMJ_IVECX_C_3_.csv

>>> COPY /tmp/ozone_117.50/GMJ_IVECC2_C_3_.csv /home/grierjones/DDCASPT2/ozone/multistate/ANO-RCC-VTZP/ozone_117.50/GMJ_IVECC2_C_3_.csv

>>> COPY /tmp/ozone_117.50/GMJ_e2_C_3_.csv /home/grierjones/DDCASPT2/ozone/multistate/ANO-RCC-VTZP/ozone_117.50/GMJ_e2_C_3_.csv

>>> END FOREACH

>>> EXPORT i = D

>>> IF (-FILE GMJ_e2_${i}_${j}_.csv)

>>> COPY /tmp/ozone_117.50/GMJ_RHS_D_3_.csv /home/grierjones/DDCASPT2/ozone/multistate/ANO-RCC-VTZP/ozone_117.50/GMJ_RHS_D_3_.csv

>>> COPY /tmp/ozone_117.50/GMJ_IVECW_D_3_.csv /home/grierjones/DDCASPT2/ozone/multistate/ANO-RCC-VTZP/ozone_117.50/GMJ_IVECW_D_3_.csv

>>> COPY /tmp/ozone_117.50/GMJ_IVECX_D_3_.csv /home/grierjones/DDCASPT2/ozone/multistate/ANO-RCC-VTZP/ozone_117.50/GMJ_IVECX_D_3_.csv

>>> COPY /tmp/ozone_117.50/GMJ_IVECC2_D_3_.csv /home/grierjones/DDCASPT2/ozone/multistate/ANO-RCC-VTZP/ozone_117.50/GMJ_IVECC2_D_3_.csv

>>> COPY /tmp/ozone_117.50/GMJ_e2_D_3_.csv /home/grierjones/DDCASPT2/ozone/multistate/ANO-RCC-VTZP/ozone_117.50/GMJ_e2_D_3_.csv

>>> END FOREACH

>>> END FOREACH

.########################.
.# Non-zero return code #.
.########################.

    Timing: Wall=23.50 User=15.20 System=8.29
********************************************
*** WorkDir at /tmp/ozone_117.50 cleaned ***
********************************************
