[Molden Format]
[N_Atoms]
                     2
[Atoms] (AU)
B1          1      5           0.00000000      0.00000000      0.00000000
N2          2      7           0.00000000      0.00000000      1.51178090
[Charge] (Mulliken)
  0.000000000000000E+000
  0.000000000000000E+000
[GTO] (AU)
   1
   s  14
  3.336021700E+04  1.039699991E-04
  4.972095200E+03  5.254399956E-04
  1.125641700E+03  2.509059979E-03
  3.164913600E+02  1.031887991E-02
  1.020072600E+02  3.636632969E-02
  3.629587300E+01  1.064607991E-01
  1.397141000E+01  2.403999880E-01
  5.741156000E+00  3.748581168E-01
  2.494268000E+00  3.100066974E-01
  1.114202000E+00  7.922455933E-02
  4.215490000E-01 -4.947589958E-03
  1.696330000E-01 -7.737119935E-03
  6.853500000E-02 -1.501079987E-03
  2.398700000E-02 -1.333299989E-04
   s  14
  3.336021700E+04 -2.030000008E-05
  4.972095200E+03 -1.025700004E-04
  1.125641700E+03 -4.911300020E-04
  3.164913600E+02 -2.026570008E-03
  1.020072600E+02 -7.261010030E-03
  3.629587300E+01 -2.197722009E-02
  1.397141000E+01 -5.408428022E-02
  5.741156000E+00 -1.022402604E-01
  2.494268000E+00 -1.423595206E-01
  1.114202000E+00 -4.658690019E-02
  4.215490000E-01  3.799402916E-01
  1.696330000E-01  5.890463624E-01
  6.853500000E-02  1.749075107E-01
  2.398700000E-02 -1.142030005E-03
   p   9
  5.500000000E+01  1.229800005E-03
  1.336610100E+01  8.827380035E-03
  4.135394000E+00  3.843340015E-02
  1.481256000E+00  1.150031805E-01
  6.021360000E-01  2.733674011E-01
  2.556360000E-01  4.061972116E-01
  1.111510000E-01  3.014967912E-01
  4.764800000E-02  7.684809030E-02
  1.667700000E-02 -8.170000032E-06
 
   2
   s  14
  7.476171500E+04  1.182599996E-04
  1.112365400E+04  5.172899983E-04
  2.512685700E+03  2.266659992E-03
  7.037772900E+02  9.145289970E-03
  2.254787900E+02  3.239342989E-02
  7.961581000E+01  9.770792967E-02
  3.023728300E+01  2.317036792E-01
  1.226362200E+01  3.768898887E-01
  5.265086000E+00  3.177420689E-01
  2.333471000E+00  8.211308973E-02
  9.018560000E-01  3.312089989E-03
  3.583360000E-01  3.720819988E-03
  1.410930000E-01  3.165419989E-03
  4.938300000E-02  4.595799985E-04
   s  14
  7.476171500E+04 -2.707000010E-05
  1.112365400E+04 -1.183700004E-04
  2.512685700E+03 -5.203800020E-04
  7.037772900E+02 -2.102930008E-03
  2.254787900E+02 -7.568200028E-03
  7.961581000E+01 -2.346767009E-02
  3.023728300E+01 -6.042901023E-02
  1.226362200E+01 -1.170549104E-01
  5.265086000E+00 -1.555321506E-01
  2.333471000E+00 -2.468935009E-02
  9.018560000E-01  3.625054514E-01
  3.583360000E-01  5.550845021E-01
  1.410930000E-01  2.148376908E-01
  4.938300000E-02  8.983850034E-03
   p   9
  1.266665700E+02  1.233630000E-03
  2.983738900E+01  9.493409996E-03
  9.394038000E+00  4.293961998E-02
  3.405104000E+00  1.362925399E-01
  1.350000000E+00  2.921362499E-01
  5.576960000E-01  3.887887598E-01
  2.324490000E-01  2.946801399E-01
  9.426400000E-02  8.012875997E-02
  3.299200000E-02  5.405199998E-04
 
[MO]
Sym=     1a  
Ene=   -15.6530
Spin= Alpha
Occup=    2.00000
   1         0.00992073
   2         0.00391070
   3        -0.00000000
   4         0.00000000
   5         0.00356930
   6         0.99873666
   7         0.00041128
   8         0.00000000
   9        -0.00000000
  10        -0.00013690
Sym=     2a  
Ene=    -7.7759
Spin= Alpha
Occup=    2.00000
   1         0.98904490
   2         0.00144047
   3        -0.00000000
   4        -0.00000000
   5         0.00032365
   6        -0.02044329
   7         0.02470869
   8        -0.00000000
   9         0.00000000
  10        -0.02169719
Sym=     3a  
Ene=    -1.2711
Spin= Alpha
Occup=    2.00000
   1        -0.16384991
   2         0.30700498
   3        -0.00000000
   4        -0.00000000
   5         0.12489571
   6        -0.06213792
   7         0.71467563
   8         0.00000000
   9         0.00000000
  10        -0.03345982
Sym=     4a  
Ene=    -0.7165
Spin= Alpha
Occup=    2.00000
   1         0.00000000
   2        -0.00000000
   3        -0.24268182
   4         0.23630719
   5        -0.00000000
   6         0.00000000
   7         0.00000000
   8        -0.54840041
   9         0.53399534
  10         0.00000000
Sym=     5a  
Ene=    -0.7165
Spin= Alpha
Occup=    2.00000
   1        -0.00000000
   2        -0.00000000
   3         0.23630719
   4         0.24268182
   5        -0.00000000
   6         0.00000000
   7         0.00000000
   8         0.53399534
   9         0.54840041
  10         0.00000000
Sym=     6a  
Ene=    -0.6333
Spin= Alpha
Occup=    2.00000
   1         0.19251935
   2        -0.35277380
   3        -0.00000000
   4        -0.00000000
   5         0.21800929
   6         0.00195329
   7         0.24098107
   8        -0.00000000
   9        -0.00000000
  10         0.79528204
Sym=     7a  
Ene=    -0.2871
Spin= Alpha
Occup=    0.00000
   1         0.21308736
   2         0.62987084
   3         0.00000000
   4        -0.00000000
   5        -0.74768567
   6         0.05514550
   7        -0.05894409
   8        -0.00000000
   9         0.00000000
  10         0.70564194
Sym=     8a  
Ene=    -0.1651
Spin= Alpha
Occup=    0.00000
   1        -0.00000000
   2        -0.00000000
   3        -0.69549914
   4        -0.94946283
   5        -0.00000000
   6         0.00000000
   7         0.00000000
   8         0.56496717
   9         0.77126670
  10        -0.00000000
Sym=     9a  
Ene=    -0.1651
Spin= Alpha
Occup=    0.00000
   1         0.00000000
   2         0.00000000
   3        -0.94946283
   4         0.69549914
   5         0.00000000
   6        -0.00000000
   7        -0.00000000
   8         0.77126670
   9        -0.56496717
  10         0.00000000
Sym=    10a  
Ene=    -0.0317
Spin= Alpha
Occup=    0.00000
   1        -0.74767899
   2        -2.39503958
   3        -0.00000000
   4         0.00000000
   5        -1.77898930
   6         0.60888617
   7         2.82972610
   8         0.00000000
   9        -0.00000000
  10        -0.83516011
