[Molden Format]
[N_Atoms]
                     2
[Atoms] (AU)
B1          1      5           0.00000000      0.00000000      0.00000000
C2          2      6           0.00000000      0.00000000      1.13383567
[Charge] (Mulliken)
  0.562858391512856     
 -0.562858391512872     
[GTO] (AU)
   1
   s  14
  3.336021700E+04  1.039699991E-04
  4.972095200E+03  5.254399956E-04
  1.125641700E+03  2.509059979E-03
  3.164913600E+02  1.031887991E-02
  1.020072600E+02  3.636632969E-02
  3.629587300E+01  1.064607991E-01
  1.397141000E+01  2.403999880E-01
  5.741156000E+00  3.748581168E-01
  2.494268000E+00  3.100066974E-01
  1.114202000E+00  7.922455933E-02
  4.215490000E-01 -4.947589958E-03
  1.696330000E-01 -7.737119935E-03
  6.853500000E-02 -1.501079987E-03
  2.398700000E-02 -1.333299989E-04
   s  14
  3.336021700E+04 -2.030000008E-05
  4.972095200E+03 -1.025700004E-04
  1.125641700E+03 -4.911300020E-04
  3.164913600E+02 -2.026570008E-03
  1.020072600E+02 -7.261010030E-03
  3.629587300E+01 -2.197722009E-02
  1.397141000E+01 -5.408428022E-02
  5.741156000E+00 -1.022402604E-01
  2.494268000E+00 -1.423595206E-01
  1.114202000E+00 -4.658690019E-02
  4.215490000E-01  3.799402916E-01
  1.696330000E-01  5.890463624E-01
  6.853500000E-02  1.749075107E-01
  2.398700000E-02 -1.142030005E-03
   p   9
  5.500000000E+01  1.229800005E-03
  1.336610100E+01  8.827380035E-03
  4.135394000E+00  3.843340015E-02
  1.481256000E+00  1.150031805E-01
  6.021360000E-01  2.733674011E-01
  2.556360000E-01  4.061972116E-01
  1.111510000E-01  3.014967912E-01
  4.764800000E-02  7.684809030E-02
  1.667700000E-02 -8.170000032E-06
 
   2
   s  14
  5.055750100E+04  1.128874000E-04
  7.524785600E+03  5.295373000E-04
  1.694327600E+03  2.450038300E-03
  4.728227900E+02  1.005398470E-02
  1.517107500E+02  3.545398060E-02
  5.391874600E+01  1.044071086E-01
  2.065931100E+01  2.412894918E-01
  8.383976000E+00  3.834225483E-01
  3.577015000E+00  3.078514393E-01
  1.547118000E+00  6.872442990E-02
  6.130130000E-01  2.224445000E-04
  2.460680000E-01  1.976748900E-03
  9.908700000E-02  2.057859400E-03
  3.468000000E-02  4.182020000E-04
   s  14
  5.055750100E+04 -2.507420000E-05
  7.524785600E+03 -1.175945000E-04
  1.694327600E+03 -5.456275000E-04
  4.728227900E+02 -2.245077100E-03
  1.517107500E+02 -8.043471800E-03
  5.391874600E+01 -2.442588710E-02
  2.065931100E+01 -6.136791180E-02
  8.383976000E+00 -1.177767835E-01
  3.577015000E+00 -1.550487783E-01
  1.547118000E+00 -1.933316860E-02
  6.130130000E-01  3.996930678E-01
  2.460680000E-01  5.589420949E-01
  9.908700000E-02  1.711195023E-01
  3.468000000E-02  7.456244600E-03
   p   9
  8.333315500E+01  1.344656000E-03
  1.955761100E+01  1.023555500E-02
  6.080365000E+00  4.520067100E-02
  2.179317000E+00  1.410756198E-01
  8.651500000E-01  3.047388085E-01
  3.619440000E-01  3.995281011E-01
  1.547400000E-01  2.719163432E-01
  6.542900000E-02  5.857669330E-02
  2.290000000E-02 -1.263813000E-04
 
[MO]
Sym=     1a  
Ene=   -12.2220
Spin= Alpha
Occup=    1.00000
   1         0.05084062
   2        -0.00786065
   3         0.00000000
   4        -0.00000000
   5         0.01024097
   6         0.99400522
   7        -0.00025712
   8         0.00000000
   9         0.00000000
  10        -0.01823781
Sym=     1a  
Ene=   -12.2160
Spin= Beta
Occup=    1.00000
   1         0.05068589
   2        -0.00816369
   3         0.00000000
   4        -0.00000000
   5         0.01040569
   6         0.99401836
   7         0.00025496
   8         0.00000000
   9         0.00000000
  10        -0.01851363
Sym=     2a  
Ene=    -8.7001
Spin= Alpha
Occup=    1.00000
   1         0.99810678
   2         0.02162711
   3         0.00000000
   4         0.00000000
   5         0.03102013
   6        -0.12806594
   7        -0.01801301
   8        -0.00000000
   9         0.00000000
  10        -0.01895038
Sym=     2a  
Ene=    -8.6875
Spin= Beta
Occup=    1.00000
   1         0.99859709
   2         0.02213524
   3         0.00000000
   4         0.00000000
   5         0.03268812
   6        -0.12867755
   7        -0.01991929
   8        -0.00000000
   9        -0.00000000
  10        -0.01891809
Sym=     3a  
Ene=    -1.0546
Spin= Alpha
Occup=    1.00000
   1        -0.24927864
   2         0.19801401
   3         0.00000000
   4         0.00000000
   5         0.07637387
   6        -0.03417781
   7         0.82505330
   8         0.00000000
   9         0.00000000
  10        -0.11330383
Sym=     3a  
Ene=    -1.0187
Spin= Beta
Occup=    1.00000
   1        -0.26618547
   2         0.17714876
   3         0.00000000
   4         0.00000000
   5         0.21762913
   6        -0.06633213
   7         0.77726734
   8         0.00000000
   9         0.00000000
  10        -0.19499245
Sym=     4a  
Ene=    -0.8089
Spin= Alpha
Occup=    1.00000
   1         0.00000000
   2        -0.00000000
   3         0.26311195
   4         0.19262340
   5         0.00000000
   6        -0.00000000
   7        -0.00000000
   8         0.58775288
   9         0.43029197
  10         0.00000000
Sym=     4a  
Ene=    -0.7958
Spin= Beta
Occup=    1.00000
   1         0.00000000
   2        -0.00000000
   3         0.21664536
   4         0.19551432
   5        -0.00000000
   6         0.00000000
   7        -0.00000000
   8         0.56354676
   9         0.50857985
  10         0.00000000
Sym=     5a  
Ene=    -0.8089
Spin= Alpha
Occup=    1.00000
   1        -0.00000000
   2         0.00000000
   3        -0.19262340
   4         0.26311195
   5         0.00000000
   6        -0.00000000
   7         0.00000000
   8        -0.43029197
   9         0.58775288
  10        -0.00000000
Sym=     5a  
Ene=    -0.7958
Spin= Beta
Occup=    1.00000
   1        -0.00000000
   2         0.00000000
   3        -0.19551432
   4         0.21664536
   5         0.00000000
   6        -0.00000000
   7         0.00000000
   8        -0.50857985
   9         0.56354676
  10        -0.00000000
Sym=     6a  
Ene=    -0.5459
Spin= Alpha
Occup=    1.00000
   1        -0.02936614
   2        -0.61913219
   3         0.00000000
   4         0.00000000
   5         0.71959441
   6        -0.07444612
   7         0.29107542
   8        -0.00000000
   9        -0.00000000
  10         0.11381456
Sym=     6a  
Ene=    -0.0426
Spin= Beta
Occup=    0.00000
   1         0.04057910
   2        -0.70065904
   3        -0.00000000
   4         0.00000000
   5         0.39626864
   6         0.01890857
   7         0.45644501
   8        -0.00000000
   9        -0.00000000
  10         0.42303853
Sym=     7a  
Ene=     0.0551
Spin= Alpha
Occup=    0.00000
   1         0.26801631
   2        -0.16701200
   3        -0.00000000
   4         0.00000000
   5        -0.95412722
   6         0.26235335
   7         0.59346638
   8         0.00000000
   9        -0.00000000
  10         1.14586786
Sym=     7a  
Ene=     0.1258
Spin= Beta
Occup=    0.00000
   1         0.28358461
   2         0.15005554
   3        -0.00000000
   4        -0.00000000
   5        -1.04607649
   6         0.23138710
   7         0.44096869
   8         0.00000000
   9         0.00000000
  10         1.08274115
Sym=     8a  
Ene=     0.4279
Spin= Alpha
Occup=    0.00000
   1         0.00000000
   2         0.00000000
   3        -1.48685395
   4        -0.29536319
   5         0.00000000
   6        -0.00000000
   7        -0.00000000
   8         1.34259772
   9         0.26670672
  10        -0.00000000
Sym=     8a  
Ene=     0.4924
Spin= Beta
Occup=    0.00000
   1        -0.00000000
   2         0.00000000
   3        -1.39809990
   4        -0.60370635
   5         0.00000000
   6        -0.00000000
   7        -0.00000000
   8         1.24128177
   9         0.53599152
  10        -0.00000000
Sym=     9a  
Ene=     0.4279
Spin= Alpha
Occup=    0.00000
   1        -0.00000000
   2        -0.00000000
   3         0.29536319
   4        -1.48685395
   5        -0.00000000
   6         0.00000000
   7         0.00000000
   8        -0.26670672
   9         1.34259772
  10         0.00000000
Sym=     9a  
Ene=     0.4924
Spin= Beta
Occup=    0.00000
   1        -0.00000000
   2        -0.00000000
   3         0.60370635
   4        -1.39809990
   5        -0.00000000
   6         0.00000000
   7         0.00000000
   8        -0.53599152
   9         1.24128177
  10         0.00000000
Sym=    10a  
Ene=     1.7269
Spin= Alpha
Occup=    0.00000
   1        -1.79358369
   2        -4.95717210
   3        -0.00000000
   4         0.00000000
   5        -2.26742675
   6         1.49814809
   7         5.35796253
   8         0.00000000
   9        -0.00000000
  10        -1.20902112
Sym=    10a  
Ene=     1.7508
Spin= Beta
Occup=    0.00000
   1        -1.78826523
   2        -4.94763923
   3        -0.00000000
   4         0.00000000
   5        -2.29705354
   6         1.50383067
   7         5.36827630
   8         0.00000000
   9        -0.00000000
  10        -1.18794602
