   This run of MOLCAS is using the pymolcas driver

                             OPE
                             OPE          NMOL  CASOP  ENMOLC A   SO
                 OPE        NMOLC        AS  OP EN  MO LC     AS  OP
                OPENM       OL CA        SO  PE NM  OL CA     SOP EN
                OP EN      MO   LC       AS  OP ENMOL  CASO   PENMOL
                OP  EN     MO   LC       AS  OP EN     MO     LC ASO
               OP   E  NMOL  C  AS       OP  EN MO     LC     AS  OP
               OP  E   NMO   LC AS        OPEN  MO     LCASOP EN   M
               O  PEN   MO  LCA  SO
            OPE   NMO   L   CAS    OP
        OPENMOL  CASOP     ENMOL   CASOPE
     OPENMOLCA   SOPENMOLCASOPEN   MOLCASOPE
    OPENMOLCAS   OP           EN   MOL    CAS
    OPENMOLCAS       OP  ENM        O     LCA
    OPENMOLCAS    OPEN  MOLCASO     P  E  NMO
    OPENMOLCAS     OP               E  N  MOL
    OPENMOLCA   SO           PENM   O  L  CAS    OPEN    MO    LCAS
    OPENMOLCA   SOP           ENM   O  L  CAS   OP  EN  MOLC  AS   O
    OPENMOLCA   SOPE           NM      O  LCA   S      OP  EN MO
    OPENMOLC                AS         O  PEN   M      OL  CA  SOPE
    OPENMO        LCASOPE  NMOL        C  ASO   P      ENMOLC     AS
    OPE     NMO      LCA  SO     P     E   NM   OL  CA SO  PE N   MO
          OPENMOLCA            SOPE   NMO        LCAS  O    P  ENMO
     OPENMOLCASOPENMOLCASOPENMOLCASOPENMOLCA
        OPENMOLCASOPENMOLCASOPENMOLCASOPE
            OPENMOLCASOPENMOLCASOPENM
               OPENMOLCASOPENMOLCA        version: 1d1d16313-dirty
                   OPENMOLCASO
                       OPE                tag:

 OpenMolcas is free software; you can redistribute it and/or modify it
 under the terms of the GNU Lesser General Public License version 2.1.
 OpenMolcas is distributed in the hope that it will be useful, but it
 is provided "as is" and without any express or implied warranties.
 For more details see the full text of the license in the file
 LICENSE or in <http://www.gnu.org/licenses/>.

                 Copyright (C) The OpenMolcas Authors
           For the author list and the recommended citation,
                   consult the file CONTRIBUTORS.md

           *************************************************
           * pymolcas version py2.28                       *
           *   build c4a6d18ded8cb6cad61d2372a9abd97c      *
           *   (after the EMIL interpreter by V. Veryazov) *
           *************************************************

configuration info
------------------
C Compiler ID: IntelLLVM
C flags: -std=gnu99
Fortran Compiler ID: IntelLLVM
Fortran flags: -standard-semantics -fltconsistency -fpp -i8 -heap-arrays
Definitions: _MOLCAS_;_I8_;_LINUX_
Parallel: OFF (GA=OFF)


   --------------------------------------------------------------------------------
  |
  |              Project: ozone_149.25
  |       Submitted from: /home/grierjones/DDCASPT2/ozone/ANO-RCC-VDZP/ozone_149.25
  |         Scratch area: /tmp/ozone_149.25
  |      Save outputs to: /home/grierjones/DDCASPT2/ozone/ANO-RCC-VDZP/ozone_149.25
  |               Molcas: /home/grierjones/Test/build
  |
  | Scratch area is empty
  |
  |       MOLCAS_DRIVER = /usr/local/pymolcas
  | MOLCAS_KEEP_WORKDIR = NO
  |  MOLCAS_NEW_WORKDIR = YES
  |       MOLCAS_NPROCS = 1
  |        MOLCAS_PRINT = NORMAL
  |       MOLCAS_SOURCE = /home/grierjones/Test
  |    MOLCAS_STRUCTURE = 0
  |
   --------------------------------------------------------------------------------

++ ---------   Input file   ---------

&GATEWAY
coord=ozone_149.25.xyz
Basis = ANO-RCC-VDZP
Group = nosymm
Expert
End of Input

&SEWARD
End of Input

&SCF

>>> COPY $WorkDir/ozone_149.25.scf.h5 $CurrDir/

&RASSCF
Title= RASSCF
FileOrb
/home/grierjones/DDCASPT2/ozone/ANO-RCC-VDZP/ozone_149.00/ozone_149.00.RasOrb
NACTEL
4 0 0
Inactive
10
RAS2
3
Symmetry
1
Spin
1
orblisting
all
ITERation
300 200

>>> COPY $WorkDir/ozone_149.25.rasscf.h5 $CurrDir/

>>> COPY $WorkDir/GMJ_Fock_MO.csv $CurrDir/ozone_149.25.GMJ_Fock_MO.csv

>>> COPY $WorkDir/GMJ_PT2_Fock_MO.csv $CurrDir/ozone_149.25.GMJ_PT2_Fock_MO.csv

&MOTRA
Frozen=0
LUMORB

>>> COPY $WorkDir/GMJ_one_int_indx.csv $CurrDir/ozone_149.25.GMJ_one_int_indx.csv

>>> COPY $WorkDir/GMJ_one_int.csv $CurrDir/ozone_149.25.GMJ_one_int.csv

>>> COPY $WorkDir/GMJ_two_int_indx.csv $CurrDir/ozone_149.25.GMJ_two_int_indx.csv

>>> COPY $WorkDir/GMJ_two_int.csv $CurrDir/ozone_149.25.GMJ_two_int.csv

&CASPT2
Frozen
0
MAXITER
50

>>> FOREACH i IN (B,E,F,G,H)

  >>> FOREACH j IN (P,M)

    >>> IF (-FILE GMJ_e2_${i}_${j}.csv)

      >>> COPY $WorkDir/GMJ_RHS_${i}_${j}.csv $CurrDir/GMJ_RHS_${i}_${j}.csv

      >>> COPY $WorkDir/GMJ_IVECW_${i}_${j}.csv $CurrDir/GMJ_IVECW_${i}_${j}.csv

      >>> COPY $WorkDir/GMJ_IVECX_${i}_${j}.csv $CurrDir/GMJ_IVECX_${i}_${j}.csv

      >>> COPY $WorkDir/GMJ_IVECC2_${i}_${j}.csv $CurrDir/GMJ_IVECC2_${i}_${j}.csv

      >>> COPY $WorkDir/GMJ_e2_${i}_${j}.csv $CurrDir/GMJ_e2_${i}_${j}.csv

    >>> END IF

  >>> END FOREACH

>>> END FOREACH

>>> FOREACH i IN (A,C,D)

  >>> IF (-FILE GMJ_e2_$i.csv)

    >>> COPY $WorkDir/GMJ_RHS_$i.csv $CurrDir/GMJ_RHS_$i.csv

    >>> COPY $WorkDir/GMJ_IVECW_$i.csv $CurrDir/GMJ_IVECW_$i.csv

    >>> COPY $WorkDir/GMJ_IVECX_$i.csv $CurrDir/GMJ_IVECX_$i.csv

    >>> COPY $WorkDir/GMJ_IVECC2_$i.csv $CurrDir/GMJ_IVECC2_$i.csv

    >>> COPY $WorkDir/GMJ_e2_$i.csv $CurrDir/GMJ_e2_$i.csv

  >>> END IF

>>> END FOREACH

-- ----------------------------------

--- Start Module: gateway at Fri Jan 24 16:54:52 2025 ---
 
()()()()()()()()()()()()()()()()()()()()()()()()()()()()()()()()()()()()()()()()()()()()()()()()()()

                                              &GATEWAY

                                   only a single process is used
                       available to each process: 2.0 GB of memory, 1 thread?
()()()()()()()()()()()()()()()()()()()()()()()()()()()()()()()()()()()()()()()()()()()()()()()()()()
 
 ###############################################################################
 ###############################################################################
 ###                                                                         ###
 ###                                                                         ###
 ###                                                                         ###
 ###    WARNING: EXPERT option is ON!                                        ###
 ###                                                                         ###
 ###                                                                         ###
 ###############################################################################
 ###############################################################################
 
++    Symmetry information:
      ---------------------
 
                    Character Table for C1 
 
                             E  
                    a        1  x, y, xy, Rz, z, xz, Ry, yz, Rx, I
--
 
 
++    Basis set information:
      ----------------------
 
 
      Basis set label: O.ANO-RCC...3S2P1D.
 
      Electronic valence basis set:
      ------------------
      Associated Effective Charge   8.000000 au
      Associated Actual Charge      8.000000 au
      Nuclear Model: Point charge
 
      Shell  nPrim  nBasis  Cartesian Spherical Contaminant
         s      14       3        X                  
         p       9       2        X                  
         d       4       1                 X         
--
 
 
++    Molecular structure info:
      -------------------------
 
                    ************************************************ 
                    **** Cartesian Coordinates / Bohr, Angstrom **** 
                    ************************************************ 
 
     Center  Label                x              y              z                     x              y              z
        1      O1               0.640320       2.328638       0.000000              0.338843       1.232262       0.000000
        2      O2               0.000000       0.000000       0.000000              0.000000       0.000000       0.000000
        3      O3               0.640320      -2.328638       0.000000              0.338843      -1.232262       0.000000
 
                    *************************************** 
                    *    InterNuclear Distances / Bohr    * 
                    *************************************** 
 
               1 O1            2 O2            3 O3    
    1 O1       0.000000
    2 O2       2.415070        0.000000
    3 O3       4.657275        2.415070        0.000000
 
                    ******************************************* 
                    *    InterNuclear Distances / Angstrom    * 
                    ******************************************* 
 
               1 O1            2 O2            3 O3    
    1 O1       0.000000
    2 O2       1.278000        0.000000
    3 O3       2.464524        1.278000        0.000000
 
                    ************************************** 
                    *    Valence Bond Angles / Degree    * 
                    ************************************** 
                          Atom centers                 Phi
                      1 O1       2 O2       3 O3       149.25
--
 
 
            Nuclear Potential Energy             66.74247113 au
 
 ###############################################################################
 ###############################################################################
 ###                                                                         ###
 ###                                                                         ###
 ###    There were warnings during the execution                             ###
 ###    Please, check the output with care!                                  ###
 ###                                                                         ###
 ###                                                                         ###
 ###############################################################################
 ###############################################################################
--- Stop Module: gateway at Fri Jan 24 16:54:52 2025 /rc=_RC_ALL_IS_WELL_ ---
*** files: xmldump
    saved to directory /home/grierjones/DDCASPT2/ozone/ANO-RCC-VDZP/ozone_149.25

--- Start Module: seward at Fri Jan 24 16:54:52 2025 ---
 
()()()()()()()()()()()()()()()()()()()()()()()()()()()()()()()()()()()()()()()()()()()()()()()()()()

                                              &SEWARD

                                   only a single process is used
                       available to each process: 2.0 GB of memory, 1 thread?
()()()()()()()()()()()()()()()()()()()()()()()()()()()()()()()()()()()()()()()()()()()()()()()()()()
 
 ###############################################################################
 ###############################################################################
 ###                                                                         ###
 ###                                                                         ###
 ###                                                                         ###
 ###    WARNING: EXPERT option is ON!                                        ###
 ###                                                                         ###
 ###                                                                         ###
 ###############################################################################
 ###############################################################################
               SEWARD will generate:
                  Multipole Moment integrals up to order  2
                  Kinetic Energy integrals
                  Nuclear Attraction integrals (point charge)
                  One-Electron Hamiltonian integrals
                  Velocity integrals
                  Relativistic Douglas-Kroll-Hess integrals:
                    - Parametrization         : EXP
                    - DKH order of Hamiltonian: 2
                    - DKH order of Properties : 0
                         - multipole moment operators
                         - electric potential operators
                         - contact operators
                  Atomic mean-field integrals
                  Two-Electron Repulsion integrals
 
                   Integrals are discarded if absolute value <: 0.10E-13
                   Integral cutoff threshold is set to       <: 0.10E-15
 
            Nuclear Potential Energy             66.74247113 au
 
 
      Basis set specifications :
      Symmetry species         a  
      Basis functions           42
 
 
  Input file to MOLDEN was generated!
 
 ###############################################################################
 ###############################################################################
 ###                                                                         ###
 ###                                                                         ###
 ###    There were warnings during the execution                             ###
 ###    Please, check the output with care!                                  ###
 ###                                                                         ###
 ###                                                                         ###
 ###############################################################################
 ###############################################################################
forrtl: warning (525): IEEE_DIVIDE_BY_ZERO is signaling
forrtl: warning (526): IEEE_INVALID is signaling
forrtl: warning (528): IEEE_UNDERFLOW is signaling
--- Stop Module: seward at Fri Jan 24 16:54:53 2025 /rc=_RC_ALL_IS_WELL_ ---
*** files: ozone_149.25.GssOrb ozone_149.25.guessorb.h5 ozone_149.25.guessorb.molden xmldump
    saved to directory /home/grierjones/DDCASPT2/ozone/ANO-RCC-VDZP/ozone_149.25
--- Module seward spent 1 second ---

*** symbolic link created: INPORB -> ozone_149.25.GssOrb
--- Start Module: scf at Fri Jan 24 16:54:53 2025 ---
 
()()()()()()()()()()()()()()()()()()()()()()()()()()()()()()()()()()()()()()()()()()()()()()()()()()

                                                &SCF

                                   only a single process is used
                       available to each process: 2.0 GB of memory, 1 thread?
()()()()()()()()()()()()()()()()()()()()()()()()()()()()()()()()()()()()()()()()()()()()()()()()()()
 
++    Input section:
      --------------
 
      Header of the integral files:
      
       Integrals generated by seward 4.2.0  , Fri Jan 24 16:54:52 2025
 
 
      Cartesian coordinates in Angstrom:
      -----------------------------------------------------
      No.  Label        X            Y            Z        
      -----------------------------------------------------
       1   O1         0.33884300   1.23226200   0.00000000
       2   O2         0.00000000   0.00000000   0.00000000
       3   O3         0.33884300  -1.23226200   0.00000000
      -----------------------------------------------------
      Nuclear repulsion energy =   66.74247113
--
 
++    Orbital specifications:
      -----------------------
 
      Symmetry species               1
                                     a
      Frozen orbitals                0
      Occupied orbitals             12
      Secondary orbitals            30
      Deleted orbitals               0
      Total number of orbitals      42
      Number of basis functions     42
--
 
      Molecular charge                           0.000
 
++    Optimization specifications:
      ----------------------------
 
      SCF Algorithm: Conventional
      Minimized density differences are used
      Number of density matrices in core                5
      Maximum number of NDDO SCF iterations           400
      Maximum number of HF SCF iterations             400
      Threshold for SCF energy change            0.10E-08
      Threshold for density matrix               0.10E-03
      Threshold for Fock matrix                  0.15E-03
      Threshold for linear dependence            0.10E-08
      Threshold at which DIIS is turned on       0.15E+00
      Threshold at which QNR/C2DIIS is turned on 0.75E-01
      Threshold for Norm(delta) (QNR/C2DIIS)     0.20E-04
      DIIS extrapolation of the SCF procedure
      All orbitals punched on: SCFORB
--
 
      Input vectors read from INPORB
      Orbital file label: *Guess orbitals
 
 
++ Convergence information
                                   SCF        iterations: Energy and convergence statistics
 
Iter     Tot. SCF        One-elec.       Two-elec.     Energy      Max Dij or  Max Fij      DNorm      TNorm      AccCon     Time
         Energy          Energy          Energy        Change      Delta Norm                                                in Sec.
   1  -223.918237443  -437.242480929   146.581772356   0.00E+00    0.58E+00*   0.26E+00*    0.73E+01   0.75E+02   None         0.
   2  -224.133912777  -443.208205481   152.331821574  -0.22E+00*   0.27E+00*   0.17E+00*    0.22E+01   0.77E+02   EDIIS        0.
   3  -224.395009960  -440.672312047   149.534830957  -0.26E+00*   0.21E+00*   0.92E-01*    0.78E+00   0.76E+02   EDIIS        0.
   4  -224.402546014  -441.484956243   150.339939099  -0.75E-02*   0.31E-01*   0.48E-01*    0.22E+00   0.76E+02   EDIIS        0.
   5  -224.437322141  -441.045604484   149.865811213  -0.35E-01*   0.13E-01*   0.62E-02*    0.46E-01   0.76E+02   c2DIIS       0.
   6  -224.437703056  -441.082617964   149.902443777  -0.38E-03*   0.55E-02*   0.32E-02*    0.11E-01   0.76E+02   QNRc2DIIS    0.
   7  -224.437790664  -441.087714488   149.907452693  -0.88E-04*   0.12E-01*   0.26E-02*    0.36E-02   0.76E+02   QNRc2DIIS    0.
   8  -224.437856229  -441.080155620   149.899828261  -0.66E-04*   0.15E-02*   0.80E-03*    0.18E-02   0.76E+02   QNRc2DIIS    0.
   9  -224.437862211  -441.086165312   149.905831970  -0.60E-05*   0.89E-03*   0.24E-03*    0.13E-02   0.76E+02   QNRc2DIIS    0.
  10  -224.437863224  -441.084477469   149.904143115  -0.10E-05*   0.22E-03*   0.61E-04     0.93E-03   0.76E+02   QNRc2DIIS    0.
  11  -224.437863279  -441.086146034   149.905811625  -0.55E-07*   0.92E-04*   0.32E-04     0.23E-03   0.76E+02   QNRc2DIIS    0.
  12  -224.437863290  -441.085491829   149.905157408  -0.12E-07*   0.31E-04*   0.79E-05     0.51E-04   0.76E+02   QNRc2DIIS    0.
  13  -224.437863292  -441.085472506   149.905138084  -0.11E-08*   0.60E-05    0.19E-05     0.29E-04   0.76E+02   QNRc2DIIS    0.
  14  -224.437863292  -441.085490380   149.905155958  -0.62E-10    0.93E-06    0.46E-06     0.19E-03   0.76E+02   QNRc2DIIS    0.
 
       Convergence after 14 Macro Iterations
--
 
 *****************************************************************************************************************************
 *                                                                                                                           *
 *                                             SCF/KS-DFT Program, Final results                                             *
 *                                                                                                                           *
 *                                                                                                                           *
 *                                                                                                                           *
 *                                                       Final Results                                                       *
 *                                                                                                                           *
 *****************************************************************************************************************************
 
::    Total SCF energy                               -224.4378632916
      One-electron energy                            -441.0854903803
      Two-electron energy                             149.9051559582
      Nuclear repulsion energy                         66.7424711305
      Kinetic energy (interpolated)                   225.4861462637
      Virial theorem                                    0.9953510094
      Total spin, S(S+1)                                0.0000000000
      Total spin, S                                     0.0000000000
      Max non-diagonal density matrix element           0.0000012068
      Max non-diagonal Fock matrix element              0.0000001892
 
 
      All orbitals with orbital energies smaller than  E(LUMO)+0.5 are printed
 
++    Molecular orbitals:
      -------------------
 
      Title: SCF orbitals

      Molecular orbitals for symmetry species 1: a  
 
          Orbital            1         2         3         4         5         6         7         8         9        10    
          Energy          -20.8821  -20.7327  -20.7326   -1.7259   -1.4678   -1.0748   -0.8359   -0.8027   -0.7663   -0.6031
          Occ. No.          2.0000    2.0000    2.0000    2.0000    2.0000    2.0000    2.0000    2.0000    2.0000    2.0000
 
        1 O1     1s         0.0022   -0.7072    0.7072   -0.0152    0.0102    0.0126   -0.0069   -0.0188   -0.0000    0.0058
        2 O1     2s        -0.0000   -0.0007    0.0005    0.3231   -0.5712    0.6366   -0.1482   -0.4059   -0.0000    0.0709
        3 O1     3s        -0.0001   -0.0001   -0.0001   -0.0230    0.0131    0.0165   -0.0127   -0.0263   -0.0000    0.0070
        4 O1     2px        0.0001    0.0003   -0.0002   -0.0244    0.0382    0.0703    0.2893   -0.2384   -0.0000   -0.6492
        5 O1     3px        0.0003    0.0001    0.0001    0.0084   -0.0051   -0.0116   -0.0267    0.0140    0.0000   -0.0039
        6 O1     2py       -0.0000    0.0008   -0.0010   -0.1053    0.0895    0.1528   -0.2046   -0.3687   -0.0000    0.2801
        7 O1     3py        0.0001   -0.0005    0.0003    0.0247   -0.0182   -0.0229    0.0188    0.0294    0.0000    0.0008
        8 O1     2pz        0.0000   -0.0000   -0.0000    0.0000    0.0000   -0.0000   -0.0000   -0.0000    0.3980    0.0000
        9 O1     3pz       -0.0000   -0.0000   -0.0000    0.0000    0.0000    0.0000   -0.0000   -0.0000   -0.0242    0.0000
       10 O1     3d2-      -0.0000   -0.0000    0.0000    0.0066   -0.0091   -0.0077   -0.0142    0.0191   -0.0000    0.0103
       11 O1     3d1-       0.0000   -0.0000   -0.0000   -0.0000   -0.0000    0.0000   -0.0000    0.0000   -0.0298   -0.0000
       12 O1     3d0        0.0001    0.0001   -0.0001   -0.0090    0.0087    0.0058   -0.0063   -0.0161   -0.0000    0.0049
       13 O1     3d1+      -0.0000    0.0000   -0.0000   -0.0000    0.0000    0.0000    0.0000    0.0000   -0.0077    0.0000
       14 O1     3d2+       0.0000   -0.0002    0.0001   -0.0170    0.0123    0.0109   -0.0202   -0.0239   -0.0000    0.0146
       15 O2     1s         1.0000   -0.0000   -0.0033   -0.0213   -0.0000   -0.0155   -0.0044   -0.0000   -0.0000   -0.0000
       16 O2     2s         0.0003   -0.0000   -0.0008    0.6666    0.0000   -0.6322   -0.0522   -0.0000   -0.0000   -0.0000
       17 O2     3s        -0.0005   -0.0000   -0.0006   -0.0409    0.0000   -0.0103   -0.0060   -0.0000    0.0000    0.0000
       18 O2     2px        0.0006   -0.0000   -0.0001    0.0720   -0.0000    0.1411    0.7264   -0.0000    0.0000    0.0000
       19 O2     3px       -0.0009   -0.0000   -0.0003   -0.0173   -0.0000   -0.0164   -0.0594    0.0000   -0.0000    0.0000
       20 O2     2py        0.0000    0.0009   -0.0000    0.0000   -0.3302   -0.0000    0.0000    0.5204    0.0000   -0.1272
       21 O2     3py        0.0000    0.0012   -0.0000    0.0000    0.0799   -0.0000   -0.0000   -0.0828   -0.0000    0.0041
       22 O2     2pz       -0.0000    0.0000    0.0000   -0.0000   -0.0000   -0.0000   -0.0000   -0.0000    0.6709   -0.0000
       23 O2     3pz        0.0000    0.0000    0.0000   -0.0000   -0.0000   -0.0000   -0.0000    0.0000   -0.0215   -0.0000
       24 O2     3d2-       0.0000    0.0001   -0.0000    0.0000   -0.0269   -0.0000    0.0000    0.0179    0.0000   -0.0413
       25 O2     3d1-      -0.0000   -0.0000   -0.0000    0.0000    0.0000   -0.0000   -0.0000   -0.0000    0.0000    0.0000
       26 O2     3d0       -0.0003    0.0000    0.0003   -0.0179    0.0000   -0.0026   -0.0124    0.0000   -0.0000   -0.0000
       27 O2     3d1+       0.0000   -0.0000   -0.0000    0.0000    0.0000   -0.0000    0.0000   -0.0000    0.0223    0.0000
       28 O2     3d2+      -0.0000    0.0000    0.0003   -0.0255    0.0000   -0.0023    0.0147   -0.0000   -0.0000   -0.0000
       29 O3     1s         0.0022    0.7072    0.7072   -0.0152   -0.0102    0.0126   -0.0069    0.0188    0.0000   -0.0058
       30 O3     2s        -0.0000    0.0007    0.0005    0.3231    0.5712    0.6366   -0.1482    0.4059    0.0000   -0.0709
       31 O3     3s        -0.0001    0.0001   -0.0001   -0.0230   -0.0131    0.0165   -0.0127    0.0263    0.0000   -0.0070
       32 O3     2px        0.0001   -0.0003   -0.0002   -0.0244   -0.0382    0.0703    0.2893    0.2384    0.0000    0.6492
       33 O3     3px        0.0003   -0.0001    0.0001    0.0084    0.0051   -0.0116   -0.0267   -0.0140   -0.0000    0.0039
       34 O3     2py        0.0000    0.0008    0.0010    0.1053    0.0895   -0.1528    0.2046   -0.3687   -0.0000    0.2801
       35 O3     3py       -0.0001   -0.0005   -0.0003   -0.0247   -0.0182    0.0229   -0.0188    0.0294    0.0000    0.0008
       36 O3     2pz        0.0000   -0.0000   -0.0000    0.0000    0.0000   -0.0000    0.0000   -0.0000    0.3980    0.0000
       37 O3     3pz       -0.0000    0.0000    0.0000   -0.0000    0.0000    0.0000    0.0000    0.0000   -0.0242    0.0000
       38 O3     3d2-       0.0000   -0.0000   -0.0000   -0.0066   -0.0091    0.0077    0.0142    0.0191    0.0000    0.0103
       39 O3     3d1-      -0.0000   -0.0000   -0.0000    0.0000    0.0000    0.0000    0.0000   -0.0000    0.0298    0.0000
       40 O3     3d0        0.0001   -0.0001   -0.0001   -0.0090   -0.0087    0.0058   -0.0063    0.0161    0.0000   -0.0049
       41 O3     3d1+      -0.0000    0.0000    0.0000    0.0000    0.0000    0.0000    0.0000    0.0000   -0.0077    0.0000
       42 O3     3d2+       0.0000    0.0002    0.0001   -0.0170   -0.0123    0.0109   -0.0202    0.0239    0.0000   -0.0146
 
          Orbital           11        12        13        14        15        16    
          Energy           -0.5089   -0.5047   -0.0401    0.1797    0.2865    0.4533
          Occ. No.          2.0000    2.0000    0.0000    0.0000    0.0000    0.0000
 
        1 O1     1s         0.0000    0.0034    0.0000    0.0342   -0.1557   -0.0324
        2 O1     2s         0.0000    0.0127    0.0000    0.3845   -1.1432   -0.2125
        3 O1     3s         0.0000    0.0171   -0.0000    0.0397   -0.3983   -0.1342
        4 O1     2px        0.0000    0.6694    0.0000   -0.0194    0.2611   -0.0555
        5 O1     3px        0.0000    0.0285   -0.0000   -0.0067    0.1976    0.4147
        6 O1     2py        0.0000    0.0449   -0.0000   -0.8155    0.5715    0.1127
        7 O1     3py       -0.0000   -0.0199   -0.0000   -0.2307    0.6076    0.2831
        8 O1     2pz       -0.7051    0.0000    0.6585    0.0000    0.0000    0.0000
        9 O1     3pz       -0.0395    0.0000    0.1292   -0.0000    0.0000   -0.0000
       10 O1     3d2-       0.0000   -0.0046   -0.0000    0.0082   -0.0157    0.0174
       11 O1     3d1-       0.0244   -0.0000    0.0112   -0.0000   -0.0000   -0.0000
       12 O1     3d0       -0.0000    0.0039    0.0000    0.0012    0.0173    0.0113
       13 O1     3d1+       0.0056   -0.0000    0.0038   -0.0000    0.0000   -0.0000
       14 O1     3d2+       0.0000    0.0071   -0.0000    0.0099    0.0258    0.0367
       15 O2     1s         0.0000    0.0189    0.0000   -0.1292   -0.0000    0.0918
       16 O2     2s         0.0000    0.2401    0.0000   -1.1600   -0.0000    0.5525
       17 O2     3s         0.0000    0.0347    0.0000   -0.2691   -0.0000    0.2303
       18 O2     2px       -0.0000   -0.6212   -0.0000   -0.4870   -0.0000   -0.0329
       19 O2     3px       -0.0000   -0.0294    0.0000   -0.1257   -0.0000    0.5236
       20 O2     2py       -0.0000    0.0000   -0.0000   -0.0000    1.3135   -0.0000
       21 O2     3py       -0.0000    0.0000   -0.0000   -0.0000    1.0430    0.0000
       22 O2     2pz        0.0000    0.0000   -0.8716    0.0000   -0.0000    0.0000
       23 O2     3pz       -0.0000    0.0000   -0.1503   -0.0000   -0.0000   -0.0000
       24 O2     3d2-      -0.0000   -0.0000    0.0000   -0.0000    0.0366    0.0000
       25 O2     3d1-      -0.0546    0.0000   -0.0000    0.0000   -0.0000    0.0000
       26 O2     3d0        0.0000    0.0183   -0.0000   -0.0324    0.0000   -0.0474
       27 O2     3d1+       0.0000   -0.0000   -0.0028    0.0000   -0.0000    0.0000
       28 O2     3d2+       0.0000    0.0298   -0.0000   -0.0543   -0.0000   -0.1040
       29 O3     1s        -0.0000    0.0034   -0.0000    0.0342    0.1557   -0.0324
       30 O3     2s        -0.0000    0.0127   -0.0000    0.3845    1.1432   -0.2125
       31 O3     3s        -0.0000    0.0171   -0.0000    0.0397    0.3983   -0.1342
       32 O3     2px        0.0000    0.6694    0.0000   -0.0194   -0.2611   -0.0555
       33 O3     3px        0.0000    0.0285    0.0000   -0.0067   -0.1976    0.4147
       34 O3     2py        0.0000   -0.0449   -0.0000    0.8155    0.5715   -0.1127
       35 O3     3py        0.0000    0.0199   -0.0000    0.2307    0.6076   -0.2831
       36 O3     2pz        0.7051   -0.0000    0.6585    0.0000    0.0000    0.0000
       37 O3     3pz        0.0395   -0.0000    0.1292   -0.0000   -0.0000   -0.0000
       38 O3     3d2-       0.0000    0.0046    0.0000   -0.0082   -0.0157   -0.0174
       39 O3     3d1-       0.0244   -0.0000   -0.0112    0.0000   -0.0000    0.0000
       40 O3     3d0       -0.0000    0.0039    0.0000    0.0012   -0.0173    0.0113
       41 O3     3d1+      -0.0056    0.0000    0.0038    0.0000    0.0000   -0.0000
       42 O3     3d2+       0.0000    0.0071    0.0000    0.0099   -0.0258    0.0367
--
 
 
++    Molecular charges:
      ------------------
 
      Mulliken charges per centre and basis function type
      ---------------------------------------------------
 
                O1      O2      O3    
      1s       2.0003  2.0001  2.0003
      2s       1.9304  1.7263  1.9304
      2px      1.9582  1.7808  1.9582
      2pz      1.4125  1.1284  1.4125
      2py      0.8363  0.9992  0.8363
      3s      -0.0105 -0.0201 -0.0105
      3px     -0.0180 -0.0336 -0.0180
      3pz     -0.0117 -0.0077 -0.0117
      3py     -0.0071  0.0248 -0.0071
      3d2+     0.0193  0.0298  0.0193
      3d1+     0.0009  0.0036  0.0009
      3d0      0.0056  0.0073  0.0056
      3d1-     0.0130  0.0463  0.0130
      3d2-     0.0100  0.0363  0.0100
      Total    8.1393  7.7215  8.1393
 
      N-E     -0.1393  0.2785 -0.1393
 
      Total electronic charge=   24.000000
 
      Total            charge=   -0.000000
--
 
 
  Input file to MOLDEN was generated!
 
 
++    Static properties:
      ------------------
 
 
      LoProp Charges per center
 

                   O1       O2       O3    
      Nuclear      8.0000   8.0000   8.0000
      Electronic  -8.1839  -7.6323  -8.1839
 
      Total       -0.1839   0.3677  -0.1839
--
 
 
++    Natural Bond Order analysis
      ---------------------------
      Based on LoProp computed density
      -------------------------------------------------------------------------------------
      Atom A       Atom B       Bond Order | Atom A       Atom B       Bond Order
        O1           O2             2.000  |   O2           O3             2.000
      -------------------------------------------------------------------------------------
      NBO located     12.000 core electrons.
      NBO located      3.971 lone pair electrons.
      NBO located      8.000 electrons involved in    2 bonds.
      The remaining    0.029 electrons are to be considered as diffuse
--
 
 
++    Molecular properties:
      ---------------------
 
      Charge (e):
                      =   -0.0000
      Dipole Moment (Debye):
      Origin of the operator (Ang)=    0.0000    0.0000    0.0000
                   X= -1.9364E-01               Y= -3.1899E-11               Z= -1.0269E-13           Total=  1.9364E-01
      Quadrupole Moment (Debye*Ang):
      Origin of the operator (Ang)=    0.2259    0.0000    0.0000
                  XX= -1.6462E+01              XY= -1.0444E-11              XZ=  4.1740E-14              YY= -1.7270E+01
                  YZ= -2.5364E-13              ZZ= -1.5180E+01
      In traceless form (Debye*Ang)
                  XX= -2.3632E-01              XY= -1.5666E-11              XZ=  6.2610E-14              YY= -1.4495E+00
                  YZ= -3.8046E-13              ZZ=  1.6858E+00
--
 
 
  Input file to MOLDEN was generated!
 
 ###############################################################################
 ###############################################################################
 ###                                                                         ###
 ###                                                                         ###
 ###    RunFile label nBas                                                   ###
 ###    was used       78 times                                              ###
 ###                                                                         ###
 ###                                                                         ###
 ###############################################################################
 ###############################################################################
forrtl: warning (528): IEEE_UNDERFLOW is signaling
--- Stop Module: scf at Fri Jan 24 16:54:54 2025 /rc=_RC_ALL_IS_WELL_ ---
*** files: ozone_149.25.LprOrb ozone_149.25.LoProp.molden ozone_149.25.scf.molden ozone_149.25.ScfOrb ozone_149.25.scf.h5 xmldump
    saved to directory /home/grierjones/DDCASPT2/ozone/ANO-RCC-VDZP/ozone_149.25

>>> COPY /tmp/ozone_149.25/ozone_149.25.scf.h5 /home/grierjones/DDCASPT2/ozone/ANO-RCC-VDZP/ozone_149.25/

*** symbolic link created: INPORB -> ozone_149.25.ScfOrb
--- Start Module: rasscf at Fri Jan 24 16:54:54 2025 ---
 
()()()()()()()()()()()()()()()()()()()()()()()()()()()()()()()()()()()()()()()()()()()()()()()()()()

                                              &RASSCF

                                   only a single process is used
                       available to each process: 2.0 GB of memory, 1 thread?
()()()()()()()()()()()()()()()()()()()()()()()()()()()()()()()()()()()()()()()()()()()()()()()()()()
 
 
 *************** WARNING ****************
 ###############################################################################
 ###############################################################################
 ###                                                                         ###
 ###                                                                         ###
 ###    Too many macro-iterations.                                           ###
 ###                                                                         ###
 ###                                                                         ###
 ###############################################################################
 ###############################################################################
 Too many macro-iterations requested.
 Reset to maximum, new MAXIT=     200
 ****************************************
 
 *************** WARNING ****************
 ###############################################################################
 ###############################################################################
 ###                                                                         ###
 ###                                                                         ###
 ###    Too many SX-iterations.                                              ###
 ###                                                                         ###
 ###                                                                         ###
 ###############################################################################
 ###############################################################################
 Too many SX-iterations requested.
 Reset to maximum, new ITMAX=     100
 ****************************************
 
      Header of the ONEINT file:
      --------------------------
      
      Integrals generated by seward 4.2.0  , Fri Jan 24 16:54:52 2025
 
 
      OrdInt status: non-squared
 
 
      Cartesian coordinates in Angstrom:
      -----------------------------------------------------
      No.  Label        X            Y            Z        
      -----------------------------------------------------
       1   O1         0.33884300   1.23226200   0.00000000
       2   O2         0.00000000   0.00000000   0.00000000
       3   O3         0.33884300  -1.23226200   0.00000000
      -----------------------------------------------------
      Nuclear repulsion energy =   66.74247113
 
++    Wave function specifications:
      -----------------------------
 
      Number of closed shell electrons          20
      Number of electrons in active shells       4
      Max number of holes in RAS1 space          0
      Max nr of electrons in RAS3 space          0
      Number of inactive orbitals               10
      Number of active orbitals                  3
      Number of secondary orbitals              29
      Spin quantum number                      0.0
      State symmetry                             1
--
 
++    Orbital specifications:
      -----------------------
 
      Symmetry species                           1
                                                 a
      Frozen orbitals                            0
      Inactive orbitals                         10
      Active orbitals                            3
      RAS1 orbitals                              0
      RAS2 orbitals                              3
      RAS3 orbitals                              0
      Secondary orbitals                        29
      Deleted orbitals                           0
      Number of basis functions                 42
--
 
++    CI expansion specifications:
      ----------------------------
 
      Number of CSFs                             6
      Number of determinants                     6
      Number of root(s) required                 1
      Root chosen for geometry opt.              1
      CI root used                               1
         
      highest root included in the CI            1
      max. size of the explicit Hamiltonian      6
--
 
++    Optimization specifications:
      ----------------------------
 
      RASSCF algorithm: Conventional
      Maximum number of macro iterations       200
      Maximum number of SX iterations          100
      Threshold for RASSCF energy            0.100E-07
      Threshold for max MO rotation          0.100E+00
      Threshold for max BLB element          0.100E-03
      Level shift parameter                  0.500E+00
      Make Quasi-Newton update
--
 
      The MO-coefficients are taken from the file:
      /home/grierjones/DDCASPT2/ozone/ANO-RCC-VDZP/ozone_149.00/ozone_149.00.RasOrb                                                   
      Title: RASSCF average (pseudo-natural) orbitals                                      
 
      Total molecular charge    0.00
 
      ************************************************************************************************************************
      *                                                                                                                      *
      *                                            Wave function control section                                             *
      *                                                                                                                      *
      ************************************************************************************************************************
 
 
                                         RASSCF iterations: Energy and convergence statistics
                                         ----------------------------------------------------
 
      Iter CI   SX   CI       RASSCF       Energy    max ROT     max BLB   max BLB  Level Ln srch  Step   QN   Walltime
          iter iter root      energy       change     param      element    value   shift minimum  type update hh:mm:ss
 Nr of preliminary CI iterations:   1
        1   1    3    1  -224.52141601    0.00E+00  -0.62E-03    9  19 1 -0.15E-02*  0.20   0.00    SX    NO    0:00:00
        2   1    3    1  -224.52142130   -0.53E-05*  0.35E-03    7  14 1 -0.83E-03*  0.20   0.00    SX    NO    0:00:00
        3   1    3    1  -224.52142243   -0.11E-05*  0.24E-03    7  14 1 -0.56E-03*  0.20   0.00    SX    NO    0:00:00
        4   1    3    1  -224.52142282   -0.39E-06*  0.11E-03    7  14 1 -0.27E-03*  0.20   0.00    SX    NO    0:00:00
        5   1    3    1  -224.52142292   -0.11E-06*  0.33E-03    7  14 1 -0.22E-03*  0.20   2.33    QN   YES    0:00:00
        6   1    3    1  -224.52142297   -0.50E-07*  0.15E-03    7  14 1  0.19E-03*  0.20   0.64    QN   YES    0:00:00
        7   1    3    1  -224.52142300   -0.26E-07*  0.22E-04    8  19 1  0.11E-03*  0.20   0.67    QN   YES    0:00:00
        8   1    3    1  -224.52142300   -0.38E-08   0.45E-05    7  14 1  0.97E-05   0.20   0.76    QN   YES    0:00:00
      Convergence after  8 iterations
 
  Dmat in MO in SXCTL bf call to SXHAM                                                                                    
  mat. size =     3x    3
 
        1.9889802823434244
        0.0000000000004714      1.7046242016800432
        0.0010938382848749      0.0000000000008533      0.3063955159765315
        9   1    3    1  -224.52142300   -0.41E-10   0.45E-05    8  19 1  0.19E-04   0.20   0.76    QN   YES    0:00:00
 
      ************************************************************************************************************************
                                                      Wave function printout:
                       occupation of active orbitals, and spin coupling of open shells (u,d: Spin up or down)
      ************************************************************************************************************************
 
      Note: transformation to natural orbitals
      has been made, which may change the order of the CSFs.
 
      printout of CI-coefficients larger than  0.05 for root  1
      energy=    -224.521423
      conf/sym  111     Coeff  Weight
             1  220  -0.92022 0.84680
             3  202   0.38430 0.14769
             6  022   0.07423 0.00551
 
      Natural orbitals and occupation numbers for root  1
      sym 1:   1.988981   1.704624   0.306395
 
      ************************************************************************************************************************
      *                                                                                                                      *
      *                                                    Final results                                                     *
      *                                                                                                                      *
      ************************************************************************************************************************
 
 
++    Wave function specifications:
      -----------------------------
 
      Number of closed shell electrons          20
      Number of electrons in active shells       4
      Max number of holes in RAS1 space          0
      Max nr of electrons in RAS3 space          0
      Number of inactive orbitals               10
      Number of active orbitals                  3
      Number of secondary orbitals              29
      Spin quantum number                      0.0
      State symmetry                             1
--
 
++    Orbital specifications:
      -----------------------
 
      Symmetry species                           1
                                                 a
      Frozen orbitals                            0
      Inactive orbitals                         10
      Active orbitals                            3
      RAS1 orbitals                              0
      RAS2 orbitals                              3
      RAS3 orbitals                              0
      Secondary orbitals                        29
      Deleted orbitals                           0
      Number of basis functions                 42
--
 
++    CI expansion specifications:
      ----------------------------
 
      Number of CSFs                             6
      Number of determinants                     6
      Number of root(s) required                 1
      CI root used                               1
      highest root included in the CI            1
      Root passed to geometry opt.               1
--
 
++    Final optimization conditions:
      ------------------------------
 
      Average CI energy                            -224.52142300
      RASSCF energy for state  1                   -224.52142300
      Super-CI energy                                -0.00000000
      RASSCF energy change                           -0.00000000
      Max change in MO coefficients              -0.418E-05
      Max non-diagonal density matrix element     0.453E-05
      Maximum BLB matrix element                  0.189E-04
      (orbital pair   8,  19 in symmetry   1)
      Norm of electronic gradient            0.370E-04
--
 
 
      Final state energy(ies):
      ------------------------
 
::    RASSCF root number  1 Total energy:   -224.52142300
 
++    Molecular orbitals:
      -------------------
 
      Pseudonatural active orbitals and approximate occupation numbers
 
 
 
 
      Molecular orbitals for symmetry species 1: a  
 
 
      Orbital                1         2         3         4         5         6         7         8         9        10
      Energy          -20.7876  -20.7300  -20.7299   -1.6910   -1.4500   -1.0612   -0.7960   -0.7887   -0.6028   -0.4845
      Occ. No.          2.0000    2.0000    2.0000    2.0000    2.0000    2.0000    2.0000    2.0000    2.0000    2.0000
 
    1 O1     1s         0.0054   -0.7072    0.7072   -0.0149    0.0090    0.0134   -0.0058   -0.0177    0.0062    0.0029
    2 O1     2s         0.0000   -0.0007    0.0005    0.3436   -0.5893    0.6303   -0.1146   -0.3742    0.0740    0.0013
    3 O1     3s        -0.0000   -0.0000   -0.0001   -0.0238    0.0120    0.0174   -0.0108   -0.0251    0.0076    0.0195
    4 O1     2px        0.0002    0.0002   -0.0002   -0.0246    0.0369    0.0719    0.3472   -0.2572   -0.6448    0.6449
    5 O1     3px        0.0004    0.0001    0.0001    0.0083   -0.0048   -0.0106   -0.0281    0.0140   -0.0038    0.0338
    6 O1     2py       -0.0001    0.0008   -0.0009   -0.1084    0.0875    0.1755   -0.2131   -0.3913    0.2907    0.0881
    7 O1     3py        0.0001   -0.0005    0.0003    0.0250   -0.0172   -0.0242    0.0156    0.0275    0.0014   -0.0209
    8 O1     2pz        0.0000    0.0000   -0.0000    0.0000    0.0000    0.0000   -0.0000   -0.0000    0.0000   -0.0000
    9 O1     3pz        0.0000    0.0000    0.0000    0.0000   -0.0000    0.0000   -0.0000    0.0000    0.0000   -0.0000
   10 O1     3d2-      -0.0000   -0.0000    0.0000    0.0062   -0.0086   -0.0076   -0.0153    0.0185    0.0096   -0.0017
   11 O1     3d1-       0.0000   -0.0000   -0.0000   -0.0000   -0.0000    0.0000   -0.0000    0.0000   -0.0000   -0.0000
   12 O1     3d0        0.0001    0.0001   -0.0002   -0.0098    0.0093    0.0062   -0.0061   -0.0161    0.0055    0.0042
   13 O1     3d1+       0.0000   -0.0000    0.0000   -0.0000    0.0000   -0.0000   -0.0000    0.0000    0.0000    0.0000
   14 O1     3d2+       0.0000   -0.0002    0.0001   -0.0172    0.0119    0.0124   -0.0194   -0.0241    0.0143    0.0094
   15 O2     1s         1.0000   -0.0000   -0.0078   -0.0225   -0.0000   -0.0130   -0.0057    0.0000    0.0000    0.0227
   16 O2     2s         0.0005   -0.0000   -0.0007    0.6390   -0.0000   -0.6335   -0.0807    0.0000    0.0000    0.2957
   17 O2     3s        -0.0007   -0.0000   -0.0006   -0.0350    0.0000   -0.0147   -0.0070   -0.0000    0.0000    0.0429
   18 O2     2px        0.0006   -0.0000   -0.0001    0.0734   -0.0000    0.1022    0.6621   -0.0000   -0.0000   -0.6735
   19 O2     3px       -0.0011   -0.0000   -0.0002   -0.0164    0.0000   -0.0115   -0.0436    0.0000   -0.0000   -0.0461
   20 O2     2py       -0.0000    0.0009   -0.0000    0.0000   -0.2994   -0.0000    0.0000    0.4903   -0.1310    0.0000
   21 O2     3py       -0.0000    0.0011   -0.0000    0.0000    0.0765   -0.0000   -0.0000   -0.0762   -0.0002    0.0000
   22 O2     2pz       -0.0000   -0.0000   -0.0000   -0.0000    0.0000    0.0000    0.0000    0.0000   -0.0000   -0.0000
   23 O2     3pz       -0.0000   -0.0000   -0.0000   -0.0000    0.0000   -0.0000   -0.0000   -0.0000   -0.0000    0.0000
   24 O2     3d2-       0.0000    0.0001   -0.0000   -0.0000   -0.0270    0.0000    0.0000    0.0203   -0.0399    0.0000
   25 O2     3d1-      -0.0000   -0.0000    0.0000   -0.0000   -0.0000    0.0000    0.0000   -0.0000    0.0000   -0.0000
   26 O2     3d0       -0.0001    0.0000    0.0003   -0.0173    0.0000   -0.0024   -0.0132    0.0000    0.0000    0.0220
   27 O2     3d1+      -0.0000    0.0000   -0.0000   -0.0000   -0.0000   -0.0000    0.0000    0.0000    0.0000    0.0000
   28 O2     3d2+       0.0000    0.0000    0.0003   -0.0251    0.0000   -0.0002    0.0169   -0.0000    0.0000    0.0272
   29 O3     1s         0.0054    0.7072    0.7072   -0.0149   -0.0090    0.0134   -0.0058    0.0177   -0.0062    0.0029
   30 O3     2s         0.0000    0.0007    0.0005    0.3436    0.5893    0.6303   -0.1146    0.3742   -0.0740    0.0013
   31 O3     3s        -0.0000    0.0000   -0.0001   -0.0238   -0.0120    0.0174   -0.0108    0.0251   -0.0076    0.0195
   32 O3     2px        0.0002   -0.0002   -0.0002   -0.0246   -0.0369    0.0719    0.3472    0.2572    0.6448    0.6449
   33 O3     3px        0.0004   -0.0001    0.0001    0.0083    0.0048   -0.0106   -0.0281   -0.0140    0.0038    0.0338
   34 O3     2py        0.0001    0.0008    0.0009    0.1084    0.0875   -0.1755    0.2131   -0.3913    0.2907   -0.0881
   35 O3     3py       -0.0001   -0.0005   -0.0003   -0.0250   -0.0172    0.0242   -0.0156    0.0275    0.0014    0.0209
   36 O3     2pz        0.0000   -0.0000    0.0000    0.0000   -0.0000   -0.0000    0.0000   -0.0000    0.0000    0.0000
   37 O3     3pz        0.0000    0.0000   -0.0000    0.0000   -0.0000   -0.0000   -0.0000    0.0000   -0.0000   -0.0000
   38 O3     3d2-       0.0000   -0.0000   -0.0000   -0.0062   -0.0086    0.0076    0.0153    0.0185    0.0096    0.0017
   39 O3     3d1-       0.0000   -0.0000    0.0000    0.0000    0.0000    0.0000    0.0000   -0.0000    0.0000   -0.0000
   40 O3     3d0        0.0001   -0.0001   -0.0002   -0.0098   -0.0093    0.0062   -0.0061    0.0161   -0.0055    0.0042
   41 O3     3d1+      -0.0000   -0.0000    0.0000   -0.0000    0.0000    0.0000   -0.0000    0.0000   -0.0000    0.0000
   42 O3     3d2+       0.0000    0.0002    0.0001   -0.0172   -0.0119    0.0124   -0.0194    0.0241   -0.0143    0.0094
 
 
      Orbital               11        12        13        14        15        16        17        18        19        20
      Energy            0.0000    0.0000    0.0000    0.1899    0.2897    0.4651    0.4661    0.5390    0.6224    0.6861
      Occ. No.          1.9890    1.7046    0.3064    0.0000    0.0000    0.0000    0.0000    0.0000    0.0000    0.0000
 
    1 O1     1s        -0.0000   -0.0000   -0.0000   -0.0364   -0.1567    0.0000   -0.0306    0.0263   -0.0328    0.0061
    2 O1     2s        -0.0000    0.0000    0.0000   -0.4029   -1.1456    0.0000   -0.2003    0.1843   -0.0837    0.0091
    3 O1     3s        -0.0000   -0.0000    0.0000   -0.0415   -0.4019    0.0000   -0.1204    0.2081   -0.1138    0.0464
    4 O1     2px        0.0000   -0.0000   -0.0000   -0.0019    0.2532    0.0000   -0.0352   -0.1026   -0.1377   -0.0470
    5 O1     3px        0.0000    0.0000   -0.0000    0.0023    0.2026   -0.0000    0.4528    0.1450   -0.1768   -0.8093
    6 O1     2py       -0.0000   -0.0000   -0.0000    0.8074    0.5496   -0.0000    0.1010   -0.1792   -0.4276    0.1202
    7 O1     3py        0.0000   -0.0000   -0.0000    0.2340    0.6154   -0.0000    0.2630   -0.7769    0.1347   -0.0580
    8 O1     2pz        0.2955   -0.7063    0.6803   -0.0000    0.0000    0.0117    0.0000   -0.0000    0.0000   -0.0000
    9 O1     3pz       -0.0296   -0.0086   -0.0530   -0.0000    0.0000    0.4827    0.0000   -0.0000    0.0000   -0.0000
   10 O1     3d2-      -0.0000    0.0000   -0.0000   -0.0083   -0.0167   -0.0000    0.0176   -0.0102   -0.0800   -0.0005
   11 O1     3d1-      -0.0286    0.0191    0.0068    0.0000   -0.0000    0.0320    0.0000   -0.0000   -0.0000   -0.0000
   12 O1     3d0        0.0000   -0.0000    0.0000   -0.0018    0.0176   -0.0000    0.0117    0.0037    0.0584   -0.0169
   13 O1     3d1+      -0.0069    0.0038    0.0015    0.0000    0.0000    0.0109    0.0000   -0.0000   -0.0000   -0.0000
   14 O1     3d2+       0.0000   -0.0000    0.0000   -0.0121    0.0263   -0.0000    0.0384   -0.0001    0.0703   -0.0193
   15 O2     1s         0.0000   -0.0000   -0.0000    0.1288   -0.0000   -0.0000    0.0882   -0.1518    0.0000   -0.0000
   16 O2     2s         0.0000   -0.0000    0.0000    1.1724   -0.0000   -0.0000    0.5286   -0.8811    0.0000   -0.0000
   17 O2     3s         0.0000   -0.0000    0.0000    0.2825   -0.0000   -0.0000    0.2350   -0.2955    0.0000   -0.0000
   18 O2     2px       -0.0000   -0.0000    0.0000    0.5364   -0.0000    0.0000   -0.0862   -0.0935    0.0000   -0.0000
   19 O2     3px       -0.0000   -0.0000   -0.0000    0.1493   -0.0000   -0.0000    0.4634   -0.0895    0.0000   -0.0000
   20 O2     2py        0.0000   -0.0000   -0.0000    0.0000    1.3032   -0.0000   -0.0000   -0.0000   -0.4373    0.1257
   21 O2     3py        0.0000    0.0000   -0.0000    0.0000    1.0610    0.0000   -0.0000   -0.0000    0.6835   -0.1537
   22 O2     2pz        0.7902   -0.0000   -0.6571    0.0000   -0.0000   -0.2606   -0.0000    0.0000    0.0000    0.0000
   23 O2     3pz       -0.0107    0.0000   -0.0725    0.0000   -0.0000    0.3532    0.0000    0.0000   -0.0000    0.0000
   24 O2     3d2-       0.0000    0.0000    0.0000    0.0000    0.0411    0.0000   -0.0000   -0.0000    0.0746    0.0086
   25 O2     3d1-      -0.0000   -0.0441    0.0000   -0.0000    0.0000    0.0000   -0.0000    0.0000   -0.0000    0.0000
   26 O2     3d0       -0.0000    0.0000   -0.0000    0.0297    0.0000    0.0000   -0.0443    0.0964   -0.0000    0.0000
   27 O2     3d1+       0.0238    0.0000   -0.0120    0.0000    0.0000   -0.0230   -0.0000   -0.0000    0.0000   -0.0000
   28 O2     3d2+      -0.0000    0.0000    0.0000    0.0512   -0.0000    0.0000   -0.1004    0.1158   -0.0000    0.0000
   29 O3     1s         0.0000    0.0000    0.0000   -0.0364    0.1567    0.0000   -0.0306    0.0263    0.0328   -0.0061
   30 O3     2s        -0.0000    0.0000   -0.0000   -0.4029    1.1456    0.0000   -0.2003    0.1843    0.0837   -0.0091
   31 O3     3s        -0.0000    0.0000   -0.0000   -0.0415    0.4019    0.0000   -0.1204    0.2081    0.1138   -0.0464
   32 O3     2px       -0.0000   -0.0000   -0.0000   -0.0019   -0.2532    0.0000   -0.0352   -0.1026    0.1377    0.0470
   33 O3     3px        0.0000   -0.0000    0.0000    0.0023   -0.2026   -0.0000    0.4528    0.1450    0.1768    0.8093
   34 O3     2py       -0.0000    0.0000   -0.0000   -0.8074    0.5496    0.0000   -0.1010    0.1792   -0.4276    0.1202
   35 O3     3py       -0.0000    0.0000   -0.0000   -0.2340    0.6154    0.0000   -0.2630    0.7769    0.1347   -0.0580
   36 O3     2pz        0.2955    0.7063    0.6803    0.0000    0.0000    0.0117    0.0000   -0.0000   -0.0000    0.0000
   37 O3     3pz       -0.0296    0.0086   -0.0530    0.0000    0.0000    0.4827    0.0000    0.0000   -0.0000    0.0000
   38 O3     3d2-       0.0000   -0.0000    0.0000    0.0083   -0.0167    0.0000   -0.0176    0.0102   -0.0800   -0.0005
   39 O3     3d1-       0.0286    0.0191   -0.0068    0.0000   -0.0000   -0.0320   -0.0000   -0.0000    0.0000   -0.0000
   40 O3     3d0        0.0000    0.0000    0.0000   -0.0018   -0.0176   -0.0000    0.0117    0.0037   -0.0584    0.0169
   41 O3     3d1+      -0.0069   -0.0038    0.0015   -0.0000    0.0000    0.0109    0.0000   -0.0000   -0.0000    0.0000
   42 O3     3d2+       0.0000    0.0000    0.0000   -0.0121   -0.0263   -0.0000    0.0384   -0.0001   -0.0703    0.0193
 
 
      Orbital               21        22        23        24        25        26        27        28        29        30
      Energy            0.6927    0.8533    0.9702    0.9958    1.0206    1.6907    1.7201    1.7223    1.7698    1.9815
      Occ. No.          0.0000    0.0000    0.0000    0.0000    0.0000    0.0000    0.0000    0.0000    0.0000    0.0000
 
    1 O1     1s        -0.0000   -0.0189   -0.0311    0.0000    0.0912   -0.0000   -0.0056   -0.0000   -0.1096   -0.0978
    2 O1     2s         0.0000   -0.1013   -0.1676    0.0000    0.5250   -0.0000   -0.0434   -0.0000   -0.8034   -0.7492
    3 O1     3s        -0.0000    0.4592   -0.0437   -0.0000   -0.0022   -0.0000   -0.0431   -0.0000   -1.0574   -0.8757
    4 O1     2px       -0.0000   -0.0078   -0.4363    0.0000   -0.2042    0.0000    0.0762    0.0000    0.2188    0.0881
    5 O1     3px        0.0000    0.0460   -0.8584    0.0000   -0.2071    0.0000    0.0417    0.0000    0.1428    0.1581
    6 O1     2py       -0.0000   -0.0290    0.0588    0.0000    0.0553    0.0000    0.0170    0.0000    0.2427    0.4977
    7 O1     3py        0.0000    0.3117    0.0158    0.0000    0.6830    0.0000    0.0228    0.0000    0.2922    0.5354
    8 O1     2pz       -0.0925    0.0000    0.0000    0.4879   -0.0000   -0.1737    0.0000   -0.0673    0.0000   -0.0000
    9 O1     3pz       -0.8348   -0.0000    0.0000    0.8918   -0.0000    0.0268    0.0000   -0.0482    0.0000   -0.0000
   10 O1     3d2-      -0.0000   -0.0507   -0.0436    0.0000   -0.0101    0.0000    0.2466    0.0000    0.2775   -0.1645
   11 O1     3d1-      -0.0282   -0.0000   -0.0000    0.0177    0.0000   -0.4052    0.0000   -0.2583    0.0000   -0.0000
   12 O1     3d0        0.0000    0.0464    0.0484   -0.0000   -0.0671    0.0000    0.3536    0.0000   -0.1140    0.0473
   13 O1     3d1+      -0.0011    0.0000    0.0000    0.0291    0.0000   -0.2049   -0.0000    0.3610    0.0000    0.0000
   14 O1     3d2+       0.0000    0.0595    0.0199   -0.0000   -0.1366    0.0000   -0.1037   -0.0000    0.1691   -0.1776
   15 O2     1s         0.0000    0.0126   -0.0165   -0.0000    0.0000    0.0000    0.0134    0.0000    0.0000    0.2489
   16 O2     2s        -0.0000    0.0649   -0.0542   -0.0000    0.0000    0.0000    0.0981    0.0000    0.0000    1.7663
   17 O2     3s        -0.0000    0.5606   -0.0156   -0.0000    0.0000    0.0000    0.1064    0.0000    0.0000    1.7413
   18 O2     2px       -0.0000   -0.0093    0.6331   -0.0000    0.0000    0.0000    0.0691    0.0000    0.0000    0.1015
   19 O2     3px       -0.0000   -0.0506    1.5659   -0.0000    0.0000   -0.0000   -0.0755   -0.0000    0.0000    0.1506
   20 O2     2py       -0.0000   -0.0000    0.0000   -0.0000   -0.7598    0.0000   -0.0000   -0.0000    0.7871   -0.0000
   21 O2     3py        0.0000   -0.0000    0.0000   -0.0000   -1.0953    0.0000   -0.0000   -0.0000    0.9527   -0.0000
   22 O2     2pz        0.0000   -0.0000   -0.0000   -0.6657    0.0000    0.0000    0.0000   -0.0585   -0.0000   -0.0000
   23 O2     3pz       -0.0000   -0.0000   -0.0000   -1.6264    0.0000    0.0000   -0.0000    0.1066   -0.0000   -0.0000
   24 O2     3d2-       0.0000   -0.0000   -0.0000    0.0000    0.1782   -0.0000   -0.0000   -0.0000   -0.3135   -0.0000
   25 O2     3d1-       0.0762    0.0000    0.0000   -0.0000   -0.0000    0.5781   -0.0000    0.0000   -0.0000    0.0000
   26 O2     3d0       -0.0000    0.0488    0.0734   -0.0000    0.0000    0.0000    0.5402    0.0000    0.0000    0.1098
   27 O2     3d1+       0.0000    0.0000    0.0000    0.0465   -0.0000   -0.0000   -0.0000    0.6492   -0.0000   -0.0000
   28 O2     3d2+      -0.0000    0.0687    0.0344   -0.0000    0.0000   -0.0000   -0.3577   -0.0000    0.0000    0.2297
   29 O3     1s         0.0000   -0.0189   -0.0311   -0.0000   -0.0912   -0.0000   -0.0056   -0.0000    0.1096   -0.0978
   30 O3     2s         0.0000   -0.1013   -0.1676   -0.0000   -0.5250    0.0000   -0.0434   -0.0000    0.8034   -0.7492
   31 O3     3s         0.0000    0.4592   -0.0437   -0.0000    0.0022    0.0000   -0.0431   -0.0000    1.0574   -0.8757
   32 O3     2px        0.0000   -0.0078   -0.4363    0.0000    0.2042   -0.0000    0.0762    0.0000   -0.2188    0.0881
   33 O3     3px       -0.0000    0.0460   -0.8584    0.0000    0.2071   -0.0000    0.0417    0.0000   -0.1428    0.1581
   34 O3     2py       -0.0000    0.0290   -0.0588    0.0000    0.0553    0.0000   -0.0170   -0.0000    0.2427   -0.4977
   35 O3     3py        0.0000   -0.3117   -0.0158    0.0000    0.6830    0.0000   -0.0228   -0.0000    0.2922   -0.5354
   36 O3     2pz        0.0925    0.0000    0.0000    0.4879   -0.0000    0.1737    0.0000   -0.0673   -0.0000   -0.0000
   37 O3     3pz        0.8348    0.0000    0.0000    0.8918   -0.0000   -0.0268    0.0000   -0.0482    0.0000   -0.0000
   38 O3     3d2-      -0.0000    0.0507    0.0436   -0.0000   -0.0101   -0.0000   -0.2466   -0.0000    0.2775    0.1645
   39 O3     3d1-      -0.0282   -0.0000   -0.0000   -0.0177    0.0000   -0.4052   -0.0000    0.2583    0.0000   -0.0000
   40 O3     3d0       -0.0000    0.0464    0.0484   -0.0000    0.0671    0.0000    0.3536    0.0000    0.1140    0.0473
   41 O3     3d1+       0.0011   -0.0000    0.0000    0.0291   -0.0000    0.2049   -0.0000    0.3610   -0.0000   -0.0000
   42 O3     3d2+      -0.0000    0.0595    0.0199    0.0000    0.1366   -0.0000   -0.1037   -0.0000   -0.1691   -0.1776
 
 
      Orbital               31        32        33        34        35        36        37        38        39        40
      Energy            2.0595    2.1078    2.1361    2.3596    2.3641    2.6573    2.8552    2.8961    2.9586    3.5305
      Occ. No.          0.0000    0.0000    0.0000    0.0000    0.0000    0.0000    0.0000    0.0000    0.0000    0.0000
 
    1 O1     1s        -0.2009   -0.0000    0.1310    0.0696    0.0000    0.0411    0.0000   -0.0849    0.0352   -0.0629
    2 O1     2s        -1.3498   -0.0000    0.8663    0.4668    0.0000    0.1608    0.0000   -0.6347    0.3825   -0.4048
    3 O1     3s        -1.1097   -0.0000    0.6437    0.3169    0.0000   -0.1315    0.0000   -0.5155    0.4791   -0.1741
    4 O1     2px        0.1929   -0.0000   -0.1286    0.0387    0.0000    0.0984   -0.0000   -0.1785   -0.1491   -0.2016
    5 O1     3px        0.2303    0.0000   -0.1937    0.1830    0.0000    0.2325    0.0000   -0.2681   -0.1175   -0.1704
    6 O1     2py        0.4511    0.0000   -0.2797   -0.2788   -0.0000    0.0070   -0.0000    0.5001   -0.3920    0.3487
    7 O1     3py        0.0011    0.0000    0.0610   -0.1635   -0.0000    0.2227   -0.0000    0.3896   -0.4078    0.0990
    8 O1     2pz        0.0000    0.0032   -0.0000    0.0000   -0.1072   -0.0000   -0.3315   -0.0000    0.0000   -0.0000
    9 O1     3pz       -0.0000   -0.0381    0.0000    0.0000   -0.2065   -0.0000   -0.4257   -0.0000    0.0000   -0.0000
   10 O1     3d2-      -0.0919   -0.0000    0.4036   -0.2213   -0.0000   -0.4092   -0.0000    0.4146    0.4777    0.3916
   11 O1     3d1-       0.0000    0.2901    0.0000   -0.0000    0.2638   -0.0000    0.7273    0.0000   -0.0000    0.0000
   12 O1     3d0        0.3566   -0.0000    0.4841    0.4922    0.0000    0.1024   -0.0000    0.3510   -0.4091    0.0786
   13 O1     3d1+      -0.0000   -0.6492   -0.0000   -0.0000    0.6231    0.0000   -0.0533    0.0000   -0.0000    0.0000
   14 O1     3d2+      -0.3158    0.0000   -0.0902   -0.3230   -0.0000    0.4556   -0.0000    0.5201   -0.4903    0.5358
   15 O2     1s         0.0000    0.0000   -0.0000   -0.0806   -0.0000    0.1255    0.0000    0.2176   -0.0000    0.0000
   16 O2     2s         0.0000    0.0000   -0.0000   -0.6772   -0.0000    0.5859   -0.0000    1.4721   -0.0000    0.0000
   17 O2     3s         0.0000    0.0000   -0.0000   -0.7924   -0.0000   -0.1957   -0.0000    0.9253   -0.0000    0.0000
   18 O2     2px       -0.0000    0.0000    0.0000   -0.4837   -0.0000   -0.1636   -0.0000    0.8664   -0.0000    0.0000
   19 O2     3px        0.0000   -0.0000    0.0000   -0.4542   -0.0000   -0.3926   -0.0000    0.7094   -0.0000    0.0000
   20 O2     2py        1.4752   -0.0000   -0.9795   -0.0000    0.0000   -0.0000   -0.0000   -0.0000   -0.7893    0.3822
   21 O2     3py        1.6007   -0.0000   -1.0432   -0.0000    0.0000   -0.0000    0.0000    0.0000    0.1813    0.0869
   22 O2     2pz       -0.0000    0.0000    0.0000   -0.0000    0.4066    0.0000    0.7436    0.0000   -0.0000   -0.0000
   23 O2     3pz       -0.0000    0.0000   -0.0000   -0.0000    0.3252    0.0000    0.7424    0.0000   -0.0000    0.0000
   24 O2     3d2-       0.3680   -0.0000   -0.2851   -0.0000    0.0000    0.0000    0.0000    0.0000    0.1669    1.1070
   25 O2     3d1-      -0.0000   -0.0376    0.0000   -0.0000   -0.0000   -0.0000   -0.0000    0.0000    0.0000    0.0000
   26 O2     3d0        0.0000    0.0000    0.0000   -0.3127   -0.0000    0.5555    0.0000   -0.4526    0.0000   -0.0000
   27 O2     3d1+       0.0000   -0.0000   -0.0000    0.0000   -0.4813   -0.0000    0.6656    0.0000   -0.0000   -0.0000
   28 O2     3d2+       0.0000    0.0000   -0.0000    0.3352    0.0000    0.1807   -0.0000    0.3726   -0.0000    0.0000
   29 O3     1s         0.2009   -0.0000   -0.1310    0.0696    0.0000    0.0411   -0.0000   -0.0849   -0.0352    0.0629
   30 O3     2s         1.3498   -0.0000   -0.8663    0.4668    0.0000    0.1608    0.0000   -0.6347   -0.3825    0.4048
   31 O3     3s         1.1097   -0.0000   -0.6437    0.3169    0.0000   -0.1315    0.0000   -0.5155   -0.4791    0.1741
   32 O3     2px       -0.1929    0.0000    0.1286    0.0387    0.0000    0.0984    0.0000   -0.1785    0.1491    0.2016
   33 O3     3px       -0.2303    0.0000    0.1937    0.1830    0.0000    0.2325    0.0000   -0.2681    0.1175    0.1704
   34 O3     2py        0.4511   -0.0000   -0.2797    0.2788    0.0000   -0.0070    0.0000   -0.5001   -0.3920    0.3487
   35 O3     3py        0.0011   -0.0000    0.0610    0.1635    0.0000   -0.2227    0.0000   -0.3896   -0.4078    0.0990
   36 O3     2pz       -0.0000   -0.0032    0.0000    0.0000   -0.1072   -0.0000   -0.3315   -0.0000   -0.0000    0.0000
   37 O3     3pz        0.0000    0.0381    0.0000    0.0000   -0.2065   -0.0000   -0.4257   -0.0000    0.0000    0.0000
   38 O3     3d2-      -0.0919   -0.0000    0.4036    0.2213    0.0000    0.4092    0.0000   -0.4146    0.4777    0.3916
   39 O3     3d1-       0.0000    0.2901    0.0000    0.0000   -0.2638   -0.0000   -0.7273   -0.0000    0.0000    0.0000
   40 O3     3d0       -0.3566    0.0000   -0.4841    0.4922    0.0000    0.1024   -0.0000    0.3510    0.4091   -0.0786
   41 O3     3d1+       0.0000    0.6492    0.0000   -0.0000    0.6231    0.0000   -0.0533   -0.0000   -0.0000   -0.0000
   42 O3     3d2+       0.3158   -0.0000    0.0902   -0.3230   -0.0000    0.4556   -0.0000    0.5201    0.4903   -0.5358
 
 
      Orbital               41        42
      Energy            3.5338    4.2634
      Occ. No.          0.0000    0.0000
 
    1 O1     1s        -0.0000    0.2121
    2 O1     2s        -0.0000    1.4099
    3 O1     3s        -0.0000    0.7259
    4 O1     2px        0.0000   -0.4389
    5 O1     3px        0.0000   -0.2066
    6 O1     2py       -0.0000   -0.9789
    7 O1     3py       -0.0000   -0.4195
    8 O1     2pz       -0.3230    0.0000
    9 O1     3pz       -0.2075    0.0000
   10 O1     3d2-      -0.0000    0.5254
   11 O1     3d1-       0.6345    0.0000
   12 O1     3d0        0.0000   -0.3310
   13 O1     3d1+       0.2434    0.0000
   14 O1     3d2+      -0.0000   -0.3304
   15 O2     1s        -0.0000   -0.3915
   16 O2     2s         0.0000   -2.7538
   17 O2     3s         0.0000   -1.7512
   18 O2     2px       -0.0000   -0.2335
   19 O2     3px       -0.0000    0.0190
   20 O2     2py       -0.0000   -0.0000
   21 O2     3py        0.0000   -0.0000
   22 O2     2pz        0.0000    0.0000
   23 O2     3pz        0.0000   -0.0000
   24 O2     3d2-      -0.0000    0.0000
   25 O2     3d1-       1.0858    0.0000
   26 O2     3d0       -0.0000    0.6525
   27 O2     3d1+       0.0000   -0.0000
   28 O2     3d2+      -0.0000    1.1769
   29 O3     1s        -0.0000    0.2121
   30 O3     2s        -0.0000    1.4099
   31 O3     3s        -0.0000    0.7259
   32 O3     2px       -0.0000   -0.4389
   33 O3     3px       -0.0000   -0.2066
   34 O3     2py       -0.0000    0.9789
   35 O3     3py       -0.0000    0.4195
   36 O3     2pz        0.3230    0.0000
   37 O3     3pz        0.2075    0.0000
   38 O3     3d2-      -0.0000   -0.5254
   39 O3     3d1-       0.6345    0.0000
   40 O3     3d0        0.0000   -0.3310
   41 O3     3d1+      -0.2434   -0.0000
   42 O3     3d2+       0.0000   -0.3304
--
 
      Von Neumann Entropy (Root  1) =  0.61906
 

      Mulliken population analysis for root number:  1
      -----------------------------------------------
 
 
++    Molecular charges:
      ------------------
 
      Mulliken charges per centre and basis function type
      ---------------------------------------------------
 
                O1      O2      O3    
      1s       2.0003  2.0001  2.0003
      2s       1.9276  1.7165  1.9276
      2px      1.9658  1.7343  1.9658
      2pz      1.2237  1.5168  1.2237
      2py      0.9153  0.9196  0.9153
      3s      -0.0095 -0.0232 -0.0095
      3px     -0.0207 -0.0446 -0.0207
      3pz     -0.0094 -0.0083 -0.0094
      3py     -0.0069  0.0120 -0.0069
      3d2+     0.0189  0.0287  0.0189
      3d1+     0.0009  0.0029  0.0009
      3d0      0.0056  0.0084  0.0056
      3d1-     0.0139  0.0305  0.0139
      3d2-     0.0101  0.0354  0.0101
      Total    8.0354  7.9292  8.0354
 
      N-E     -0.0354  0.0708 -0.0354
 
      Total electronic charge=   24.000000
 
      Total            charge=   -0.000000
--
 
 

      Expectation values of various properties for root number:  1
      -----------------------------------------------------------
 
 
++    Molecular properties:
      ---------------------
 
      Charge (e):
                      =   -0.0000
      Dipole Moment (Debye):
      Origin of the operator (Ang)=    0.0000    0.0000    0.0000
                   X=  1.8470E-01               Y=  7.7276E-14               Z= -1.0561E-13           Total=  1.8470E-01
      Quadrupole Moment (Debye*Ang):
      Origin of the operator (Ang)=    0.2259    0.0000    0.0000
                  XX= -1.6495E+01              XY= -8.0425E-12              XZ=  2.4839E-13              YY= -1.6144E+01
                  YZ= -3.3934E-13              ZZ= -1.4722E+01
      In traceless form (Debye*Ang)
                  XX= -1.0620E+00              XY= -1.2064E-11              XZ=  3.7259E-13              YY= -5.3494E-01
                  YZ= -5.0901E-13              ZZ=  1.5969E+00
--
 

      LoProp population analysis for root number:  1
      -----------------------------------------------
 
 
++    LoProp analysis:
      ----------------
 
 
 
  Input file to MOLDEN was generated!
 
 
++    Static properties:
      ------------------
 
 
      LoProp Charges per center
 

                   O1       O2       O3    
      Nuclear      8.0000   8.0000   8.0000
      Electronic  -8.0661  -7.8678  -8.0661
 
      Total       -0.0661   0.1322  -0.0661
--
 
 
      Natural Bond Order analysis for root number:  1
 
++    Natural Bond Order analysis
      ---------------------------
      Based on LoProp computed density
      -------------------------------------------------------------------------------------
      Atom A       Atom B       Bond Order | Atom A       Atom B       Bond Order
        O1           O2             1.968  |   O2           O3             1.968
      -------------------------------------------------------------------------------------
      NBO located     12.000 core electrons.
      NBO located      3.974 lone pair electrons.
      NBO located      7.870 electrons involved in    2 bonds.
      The remaining    0.156 electrons are to be considered as diffuse
--
 
--
 
 
  Input file to MOLDEN was generated!
 
      Average orbitals are written to the RASORB file
      Natural orbitals for root   1 are written to the RASORB.1 file
      Spin density orbitals for root   1 are written to the SPDORB.1 file
 
forrtl: warning (525): IEEE_DIVIDE_BY_ZERO is signaling
forrtl: warning (526): IEEE_INVALID is signaling
forrtl: warning (528): IEEE_UNDERFLOW is signaling
--- Stop Module: rasscf at Fri Jan 24 16:54:54 2025 /rc=_RC_ALL_IS_WELL_ ---
*** files: ozone_149.25.LprOrb ozone_149.25.rasscf.molden ozone_149.25.LoProp.molden ozone_149.25.RasOrb ozone_149.25.RasOrb.1 ozone_149.25.rasscf.h5 ozone_149.25.SpdOrb.1 xmldump
    saved to directory /home/grierjones/DDCASPT2/ozone/ANO-RCC-VDZP/ozone_149.25

>>> COPY /tmp/ozone_149.25/ozone_149.25.rasscf.h5 /home/grierjones/DDCASPT2/ozone/ANO-RCC-VDZP/ozone_149.25/

>>> COPY /tmp/ozone_149.25/GMJ_Fock_MO.csv /home/grierjones/DDCASPT2/ozone/ANO-RCC-VDZP/ozone_149.25/ozone_149.25.GMJ_Fock_MO.csv

>>> COPY /tmp/ozone_149.25/GMJ_PT2_Fock_MO.csv /home/grierjones/DDCASPT2/ozone/ANO-RCC-VDZP/ozone_149.25/ozone_149.25.GMJ_PT2_Fock_MO.csv

*** symbolic link created: INPORB -> ozone_149.25.RasOrb
--- Start Module: motra at Fri Jan 24 16:54:54 2025 ---
 
()()()()()()()()()()()()()()()()()()()()()()()()()()()()()()()()()()()()()()()()()()()()()()()()()()

                                               &MOTRA

                                   only a single process is used
                       available to each process: 2.0 GB of memory, 1 thread?
()()()()()()()()()()()()()()()()()()()()()()()()()()()()()()()()()()()()()()()()()()()()()()()()()()
 
 
      *** WARNING: Default frozen orbitals is overwritten by user input.
      *** Default values:   3
 
      Header of the integral files:
      
       Integrals generated by seward 4.2.0  , Fri Jan 24 16:54:52 2025
 
 
      Header of MO coefficients source file:
      * RASSCF average (pseudo-natural) orbitals                                      
 
 
      Cartesian coordinates in Angstrom:
      -----------------------------------------------------
      No.  Label        X            Y            Z        
      -----------------------------------------------------
       1   O1         0.33884300   1.23226200   0.00000000
       2   O2         0.00000000   0.00000000   0.00000000
       3   O3         0.33884300  -1.23226200   0.00000000
      -----------------------------------------------------
      Nuclear repulsion energy =   66.74247113
 
      Orbital specifications:
      -----------------------
 
      Symmetry species:              1
      Number of basis functions:    42
      Frozen orbitals:               0
      Deleted orbitals:              0
      Number of orbitals used:      42

       SYMMETRY  BASIS FUNCTIONS       ORBITALS      INTEGRALS   CPU(SEC)  I/O(SEC)
 
        1 1 1 1   42  42  42  42    42  42  42  42      408156       0.00      0.00

       TOTAL CPU TIME(SEC)    0.33TOTAL I/O TIME(SEC)    0.76
 
--- Stop Module: motra at Fri Jan 24 16:54:55 2025 /rc=_RC_ALL_IS_WELL_ ---
*** files: xmldump
    saved to directory /home/grierjones/DDCASPT2/ozone/ANO-RCC-VDZP/ozone_149.25

>>> COPY /tmp/ozone_149.25/GMJ_one_int_indx.csv /home/grierjones/DDCASPT2/ozone/ANO-RCC-VDZP/ozone_149.25/ozone_149.25.GMJ_one_int_indx.csv

>>> COPY /tmp/ozone_149.25/GMJ_one_int.csv /home/grierjones/DDCASPT2/ozone/ANO-RCC-VDZP/ozone_149.25/ozone_149.25.GMJ_one_int.csv

>>> COPY /tmp/ozone_149.25/GMJ_two_int_indx.csv /home/grierjones/DDCASPT2/ozone/ANO-RCC-VDZP/ozone_149.25/ozone_149.25.GMJ_two_int_indx.csv

>>> COPY /tmp/ozone_149.25/GMJ_two_int.csv /home/grierjones/DDCASPT2/ozone/ANO-RCC-VDZP/ozone_149.25/ozone_149.25.GMJ_two_int.csv

*** symbolic link created: INPORB -> ozone_149.25.RasOrb
--- Start Module: caspt2 at Fri Jan 24 16:54:55 2025 ---
 
()()()()()()()()()()()()()()()()()()()()()()()()()()()()()()()()()()()()()()()()()()()()()()()()()()

                                              &CASPT2

                                   only a single process is used
                       available to each process: 2.0 GB of memory, 1 thread?
()()()()()()()()()()()()()()()()()()()()()()()()()()()()()()()()()()()()()()()()()()()()()()()()()()
 
 Cholesky algorithm in CASPT2 =    1
 
 ###############################################################################
 ###############################################################################
 ###                                                                         ###
 ###                                                                         ###
 ###    User changed nr of frozen orbitals.                                  ###
 ###                                                                         ###
 ###                                                                         ###
 ###############################################################################
 ###############################################################################
 
++    Wave function specifications:
      -----------------------------
 
      Number of closed shell electrons          20
      Number of electrons in active shells       4
      Max number of holes in RAS1 space          0
      Max number of electrons in RAS3 space      0
      Number of inactive orbitals               10
      Number of active orbitals                  3
      Number of secondary orbitals              29
      Spin quantum number                      0.0
      State symmetry                             1
      Number of CSFs                             6
      Number of root(s) available                1
      Root passed to geometry opt.               1
      A file JOBMIX will be created.
      This is a CASSCF or RASSCF reference function
--
 
++    Orbital specifications:
      -----------------------
 
      Symmetry species                           1
                                                 a
      Frozen orbitals                            0
      Inactive orbitals                         10
      Active orbitals                            3
      Secondary orbitals                        29
      Deleted orbitals                           0
      Number of basis functions                 42
--
 
      Type of Fock operator: STANDARD
      Type of 0-order Hamiltonian: STANDARD WITH DEFAULT IPEA
        "IP-EA" denominator shift =      0.25
      The input orbitals and the CI vector will be transformed.
 
--------------------------------------------------------------------------------
 Estimated memory requirements:
  POLY3 :                   250202
  RHS:                      279634
  SIGMA :                   302200
  PRPCTL:                        0
 Available workspace:    230396563
 
++ CASPT2 computation for group   1
 
********************************************************************************
 Multi-State initialization phase begins for group   1
--------------------------------------------------------------------------------
********************************************************************************
 Compute H0 matrices for state    1
--------------------------------------------------------------------------------
--------------------------------------------------------------------------------
 H0 matrices have been computed.
 
********************************************************************************
  CASPT2 EQUATION SOLUTION
--------------------------------------------------------------------------------
 
  Total nr of CASPT2 parameters:
   Before reduction:       86691
   After  reduction:       82880
 
 The contributions to the second order correlation energy in atomic units.
-----------------------------------------------------------------------------------------------------------------------------
  IT.      VJTU        VJTI        ATVX        AIVX        VJAI        BVAT        BJAT        BJAI        TOTAL       RNORM  
-----------------------------------------------------------------------------------------------------------------------------
   1    -0.000000   -0.001432   -0.013990   -0.099447   -0.017206   -0.016905   -0.123432   -0.268728   -0.541141    0.002162
   2    -0.000000   -0.001450   -0.014039   -0.099788   -0.017223   -0.016910   -0.123456   -0.268731   -0.541597    0.000173
   3    -0.000000   -0.001451   -0.014040   -0.099792   -0.017223   -0.016910   -0.123457   -0.268731   -0.541603    0.000023
   4    -0.000000   -0.001451   -0.014039   -0.099790   -0.017223   -0.016910   -0.123456   -0.268731   -0.541600    0.000003
-------------------------------------------------------------------------------------------------------------------
 
  FINAL CASPT2 RESULT:
 
  Correlation energy /Case, /Symm, and sums:
 VJTU     -0.00000000 -0.00000000
 VJTIP    -0.00145075 -0.00145075
 VJTIM     0.00000000  0.00000000
 ATVX     -0.01403944 -0.01403944
 AIVX     -0.09979001 -0.09979001
 VJAIP    -0.01199915 -0.01199915
 VJAIM    -0.00522359 -0.00522359
 BVATP    -0.01599378 -0.01599378
 BVATM    -0.00091644 -0.00091644
 BJATP    -0.04570397 -0.04570397
 BJATM    -0.07775229 -0.07775229
 BJAIP    -0.18075902 -0.18075902
 BJAIM    -0.08797177 -0.08797177
 Summed:  -0.54160023 -0.54160023
 
      Reference energy:        -224.5214230034
      E2 (Non-variational):      -0.5416002272
      E2 (Variational):          -0.5416002541
      Total energy:            -225.0630232575
      Residual norm:              0.0000002786
      Reference weight:           0.85345
 
      Contributions to the CASPT2 correlation energy
      Active & Virtual Only:         -0.0309496642
      One Inactive Excited:          -0.2232462719
      Two Inactive Excited:          -0.2874042910
 
 
++ Denominators, etc.
----------------------------------------------------------------------------------------------------
 Report on small energy denominators, large coefficients, and large energy contributions.
CASE  SYMM ACTIVE-MIX  NON-ACTIVE INDICES          DENOMINATOR     RHS VALUE       COEFFICIENT     CONTRIBUTION
ATVX     1  Mu1.0006  Se1.016                       1.89046497      0.06637512     -0.03580632     -0.00237665
ATVX     1  Mu1.0005  Se1.021                       1.83767469      0.10153289     -0.05417353     -0.00550040
ATVX     1  Mu1.0006  Se1.024                       2.42115001     -0.06173232      0.02556690     -0.00157830
ATVX     1  Mu1.0005  Se1.026                       2.83570426     -0.07157375      0.02532619     -0.00181269
AIVX     1  Mu1.0005  In1.004 Se1.014               2.65734442      0.08094512     -0.03048410     -0.00246754
AIVX     1  Mu1.0003  In1.005 Se1.014               2.06236862     -0.06507653      0.03112789     -0.00202570
AIVX     1  Mu1.0004  In1.007 Se1.014               1.59988281     -0.06624377      0.04183368     -0.00277122
AIVX     1  Mu1.0002  In1.008 Se1.014               1.30924211     -0.08726953      0.06605138     -0.00576427
AIVX     1  Mu1.0003  In1.008 Se1.014               1.40109386      0.04493568     -0.03181960     -0.00142984
AIVX     1  Mu1.0002  In1.009 Se1.014               1.12328772      0.06107601     -0.05369268     -0.00327933
AIVX     1  Mu1.0003  In1.009 Se1.014               1.21513947     -0.04073262      0.03321018     -0.00135274
AIVX     1  Mu1.0004  In1.010 Se1.017               1.56463638     -0.05535810      0.03533073     -0.00195584
AIVX     1  Mu1.0002  In1.009 Se1.018               1.47244534      0.05730430     -0.03792928     -0.00217351
AIVX     1  Mu1.0003  In1.009 Se1.018               1.56429709     -0.04014084      0.02502482     -0.00100452
AIVX     1  Mu1.0004  In1.008 Se1.019               2.02514726      0.11700686     -0.05820601     -0.00681050
AIVX     1  Mu1.0005  In1.008 Se1.019               2.18763211     -0.07344726      0.03383999     -0.00248545
AIVX     1  Mu1.0002  In1.010 Se1.020               1.50128415      0.07540310     -0.04893350     -0.00368974
AIVX     1  Mu1.0003  In1.010 Se1.020               1.59313589     -0.05033672      0.03067989     -0.00154432
AIVX     1  Mu1.0004  In1.006 Se1.022               2.52861479     -0.06429062      0.02542462     -0.00163456
BJAIP    1  Se1.014 In1.006 Se1.019 In1.008         2.66224178      0.07570720     -0.02843737     -0.00215291
BJAIP    1  Se1.014 In1.007 Se1.019 In1.008         2.39697459     -0.06038508      0.02519219     -0.00152123
BJAIP    1  Se1.014 In1.008 Se1.014 In1.008         1.95722631      0.06049971     -0.03091094     -0.00187010
BJAIP    1  Se1.019 In1.008 Se1.019 In1.008         2.82223904      0.10534737     -0.03732756     -0.00393236
BJAIP    1  Se1.014 In1.009 Se1.014 In1.009         1.58531753      0.04151795     -0.02618904     -0.00108732
BJAIM    1  Se1.014 In1.009 Se1.019 In1.010         1.96331395      0.04934707     -0.02513457     -0.00124032
--
 
   (Skipping property calculation,
    use PROP keyword to activate)
--
 
  Total CASPT2 energies:
::    CASPT2 Root  1     Total energy:   -225.06302326
 
  A NEW JOBIPH FILE NAMED 'JOBMIX' IS PREPARED.
********************************************************************************
forrtl: warning (528): IEEE_UNDERFLOW is signaling
--- Stop Module: caspt2 at Fri Jan 24 16:54:56 2025 /rc=_RC_ALL_IS_WELL_ ---
*** files: xmldump
    saved to directory /home/grierjones/DDCASPT2/ozone/ANO-RCC-VDZP/ozone_149.25

>>> EXPORT i = B

>>> EXPORT j = P

>>> IF (-FILE GMJ_e2_${i}_${j}.csv)

>>> COPY /tmp/ozone_149.25/GMJ_RHS_B_P.csv /home/grierjones/DDCASPT2/ozone/ANO-RCC-VDZP/ozone_149.25/GMJ_RHS_B_P.csv

>>> COPY /tmp/ozone_149.25/GMJ_IVECW_B_P.csv /home/grierjones/DDCASPT2/ozone/ANO-RCC-VDZP/ozone_149.25/GMJ_IVECW_B_P.csv

>>> COPY /tmp/ozone_149.25/GMJ_IVECX_B_P.csv /home/grierjones/DDCASPT2/ozone/ANO-RCC-VDZP/ozone_149.25/GMJ_IVECX_B_P.csv

>>> COPY /tmp/ozone_149.25/GMJ_IVECC2_B_P.csv /home/grierjones/DDCASPT2/ozone/ANO-RCC-VDZP/ozone_149.25/GMJ_IVECC2_B_P.csv

>>> COPY /tmp/ozone_149.25/GMJ_e2_B_P.csv /home/grierjones/DDCASPT2/ozone/ANO-RCC-VDZP/ozone_149.25/GMJ_e2_B_P.csv

>>> END FOREACH

>>> EXPORT j = M

>>> IF (-FILE GMJ_e2_${i}_${j}.csv)
(Skipped)

>>> END FOREACH

>>> END FOREACH

>>> EXPORT i = E

>>> EXPORT j = P

>>> IF (-FILE GMJ_e2_${i}_${j}.csv)

>>> COPY /tmp/ozone_149.25/GMJ_RHS_E_P.csv /home/grierjones/DDCASPT2/ozone/ANO-RCC-VDZP/ozone_149.25/GMJ_RHS_E_P.csv

>>> COPY /tmp/ozone_149.25/GMJ_IVECW_E_P.csv /home/grierjones/DDCASPT2/ozone/ANO-RCC-VDZP/ozone_149.25/GMJ_IVECW_E_P.csv

>>> COPY /tmp/ozone_149.25/GMJ_IVECX_E_P.csv /home/grierjones/DDCASPT2/ozone/ANO-RCC-VDZP/ozone_149.25/GMJ_IVECX_E_P.csv

>>> COPY /tmp/ozone_149.25/GMJ_IVECC2_E_P.csv /home/grierjones/DDCASPT2/ozone/ANO-RCC-VDZP/ozone_149.25/GMJ_IVECC2_E_P.csv

>>> COPY /tmp/ozone_149.25/GMJ_e2_E_P.csv /home/grierjones/DDCASPT2/ozone/ANO-RCC-VDZP/ozone_149.25/GMJ_e2_E_P.csv

>>> END FOREACH

>>> EXPORT j = M

>>> IF (-FILE GMJ_e2_${i}_${j}.csv)

>>> COPY /tmp/ozone_149.25/GMJ_RHS_E_M.csv /home/grierjones/DDCASPT2/ozone/ANO-RCC-VDZP/ozone_149.25/GMJ_RHS_E_M.csv

>>> COPY /tmp/ozone_149.25/GMJ_IVECW_E_M.csv /home/grierjones/DDCASPT2/ozone/ANO-RCC-VDZP/ozone_149.25/GMJ_IVECW_E_M.csv

>>> COPY /tmp/ozone_149.25/GMJ_IVECX_E_M.csv /home/grierjones/DDCASPT2/ozone/ANO-RCC-VDZP/ozone_149.25/GMJ_IVECX_E_M.csv

>>> COPY /tmp/ozone_149.25/GMJ_IVECC2_E_M.csv /home/grierjones/DDCASPT2/ozone/ANO-RCC-VDZP/ozone_149.25/GMJ_IVECC2_E_M.csv

>>> COPY /tmp/ozone_149.25/GMJ_e2_E_M.csv /home/grierjones/DDCASPT2/ozone/ANO-RCC-VDZP/ozone_149.25/GMJ_e2_E_M.csv

>>> END FOREACH

>>> END FOREACH

>>> EXPORT i = F

>>> EXPORT j = P

>>> IF (-FILE GMJ_e2_${i}_${j}.csv)

>>> COPY /tmp/ozone_149.25/GMJ_RHS_F_P.csv /home/grierjones/DDCASPT2/ozone/ANO-RCC-VDZP/ozone_149.25/GMJ_RHS_F_P.csv

>>> COPY /tmp/ozone_149.25/GMJ_IVECW_F_P.csv /home/grierjones/DDCASPT2/ozone/ANO-RCC-VDZP/ozone_149.25/GMJ_IVECW_F_P.csv

>>> COPY /tmp/ozone_149.25/GMJ_IVECX_F_P.csv /home/grierjones/DDCASPT2/ozone/ANO-RCC-VDZP/ozone_149.25/GMJ_IVECX_F_P.csv

>>> COPY /tmp/ozone_149.25/GMJ_IVECC2_F_P.csv /home/grierjones/DDCASPT2/ozone/ANO-RCC-VDZP/ozone_149.25/GMJ_IVECC2_F_P.csv

>>> COPY /tmp/ozone_149.25/GMJ_e2_F_P.csv /home/grierjones/DDCASPT2/ozone/ANO-RCC-VDZP/ozone_149.25/GMJ_e2_F_P.csv

>>> END FOREACH

>>> EXPORT j = M

>>> IF (-FILE GMJ_e2_${i}_${j}.csv)

>>> COPY /tmp/ozone_149.25/GMJ_RHS_F_M.csv /home/grierjones/DDCASPT2/ozone/ANO-RCC-VDZP/ozone_149.25/GMJ_RHS_F_M.csv

>>> COPY /tmp/ozone_149.25/GMJ_IVECW_F_M.csv /home/grierjones/DDCASPT2/ozone/ANO-RCC-VDZP/ozone_149.25/GMJ_IVECW_F_M.csv

>>> COPY /tmp/ozone_149.25/GMJ_IVECX_F_M.csv /home/grierjones/DDCASPT2/ozone/ANO-RCC-VDZP/ozone_149.25/GMJ_IVECX_F_M.csv

>>> COPY /tmp/ozone_149.25/GMJ_IVECC2_F_M.csv /home/grierjones/DDCASPT2/ozone/ANO-RCC-VDZP/ozone_149.25/GMJ_IVECC2_F_M.csv

>>> COPY /tmp/ozone_149.25/GMJ_e2_F_M.csv /home/grierjones/DDCASPT2/ozone/ANO-RCC-VDZP/ozone_149.25/GMJ_e2_F_M.csv

>>> END FOREACH

>>> END FOREACH

>>> EXPORT i = G

>>> EXPORT j = P

>>> IF (-FILE GMJ_e2_${i}_${j}.csv)

>>> COPY /tmp/ozone_149.25/GMJ_RHS_G_P.csv /home/grierjones/DDCASPT2/ozone/ANO-RCC-VDZP/ozone_149.25/GMJ_RHS_G_P.csv

>>> COPY /tmp/ozone_149.25/GMJ_IVECW_G_P.csv /home/grierjones/DDCASPT2/ozone/ANO-RCC-VDZP/ozone_149.25/GMJ_IVECW_G_P.csv

>>> COPY /tmp/ozone_149.25/GMJ_IVECX_G_P.csv /home/grierjones/DDCASPT2/ozone/ANO-RCC-VDZP/ozone_149.25/GMJ_IVECX_G_P.csv

>>> COPY /tmp/ozone_149.25/GMJ_IVECC2_G_P.csv /home/grierjones/DDCASPT2/ozone/ANO-RCC-VDZP/ozone_149.25/GMJ_IVECC2_G_P.csv

>>> COPY /tmp/ozone_149.25/GMJ_e2_G_P.csv /home/grierjones/DDCASPT2/ozone/ANO-RCC-VDZP/ozone_149.25/GMJ_e2_G_P.csv

>>> END FOREACH

>>> EXPORT j = M

>>> IF (-FILE GMJ_e2_${i}_${j}.csv)

>>> COPY /tmp/ozone_149.25/GMJ_RHS_G_M.csv /home/grierjones/DDCASPT2/ozone/ANO-RCC-VDZP/ozone_149.25/GMJ_RHS_G_M.csv

>>> COPY /tmp/ozone_149.25/GMJ_IVECW_G_M.csv /home/grierjones/DDCASPT2/ozone/ANO-RCC-VDZP/ozone_149.25/GMJ_IVECW_G_M.csv

>>> COPY /tmp/ozone_149.25/GMJ_IVECX_G_M.csv /home/grierjones/DDCASPT2/ozone/ANO-RCC-VDZP/ozone_149.25/GMJ_IVECX_G_M.csv

>>> COPY /tmp/ozone_149.25/GMJ_IVECC2_G_M.csv /home/grierjones/DDCASPT2/ozone/ANO-RCC-VDZP/ozone_149.25/GMJ_IVECC2_G_M.csv

>>> COPY /tmp/ozone_149.25/GMJ_e2_G_M.csv /home/grierjones/DDCASPT2/ozone/ANO-RCC-VDZP/ozone_149.25/GMJ_e2_G_M.csv

>>> END FOREACH

>>> END FOREACH

>>> EXPORT i = H

>>> EXPORT j = P

>>> IF (-FILE GMJ_e2_${i}_${j}.csv)

>>> COPY /tmp/ozone_149.25/GMJ_RHS_H_P.csv /home/grierjones/DDCASPT2/ozone/ANO-RCC-VDZP/ozone_149.25/GMJ_RHS_H_P.csv

>>> COPY /tmp/ozone_149.25/GMJ_IVECW_H_P.csv /home/grierjones/DDCASPT2/ozone/ANO-RCC-VDZP/ozone_149.25/GMJ_IVECW_H_P.csv

>>> COPY /tmp/ozone_149.25/GMJ_IVECX_H_P.csv /home/grierjones/DDCASPT2/ozone/ANO-RCC-VDZP/ozone_149.25/GMJ_IVECX_H_P.csv

>>> COPY /tmp/ozone_149.25/GMJ_IVECC2_H_P.csv /home/grierjones/DDCASPT2/ozone/ANO-RCC-VDZP/ozone_149.25/GMJ_IVECC2_H_P.csv

>>> COPY /tmp/ozone_149.25/GMJ_e2_H_P.csv /home/grierjones/DDCASPT2/ozone/ANO-RCC-VDZP/ozone_149.25/GMJ_e2_H_P.csv

>>> END FOREACH

>>> EXPORT j = M

>>> IF (-FILE GMJ_e2_${i}_${j}.csv)

>>> COPY /tmp/ozone_149.25/GMJ_RHS_H_M.csv /home/grierjones/DDCASPT2/ozone/ANO-RCC-VDZP/ozone_149.25/GMJ_RHS_H_M.csv

>>> COPY /tmp/ozone_149.25/GMJ_IVECW_H_M.csv /home/grierjones/DDCASPT2/ozone/ANO-RCC-VDZP/ozone_149.25/GMJ_IVECW_H_M.csv

>>> COPY /tmp/ozone_149.25/GMJ_IVECX_H_M.csv /home/grierjones/DDCASPT2/ozone/ANO-RCC-VDZP/ozone_149.25/GMJ_IVECX_H_M.csv

>>> COPY /tmp/ozone_149.25/GMJ_IVECC2_H_M.csv /home/grierjones/DDCASPT2/ozone/ANO-RCC-VDZP/ozone_149.25/GMJ_IVECC2_H_M.csv

>>> COPY /tmp/ozone_149.25/GMJ_e2_H_M.csv /home/grierjones/DDCASPT2/ozone/ANO-RCC-VDZP/ozone_149.25/GMJ_e2_H_M.csv

>>> END FOREACH

>>> END FOREACH

>>> EXPORT i = A

>>> IF (-FILE GMJ_e2_$i.csv)

>>> COPY /tmp/ozone_149.25/GMJ_RHS_A.csv /home/grierjones/DDCASPT2/ozone/ANO-RCC-VDZP/ozone_149.25/GMJ_RHS_A.csv

>>> COPY /tmp/ozone_149.25/GMJ_IVECW_A.csv /home/grierjones/DDCASPT2/ozone/ANO-RCC-VDZP/ozone_149.25/GMJ_IVECW_A.csv

>>> COPY /tmp/ozone_149.25/GMJ_IVECX_A.csv /home/grierjones/DDCASPT2/ozone/ANO-RCC-VDZP/ozone_149.25/GMJ_IVECX_A.csv

>>> COPY /tmp/ozone_149.25/GMJ_IVECC2_A.csv /home/grierjones/DDCASPT2/ozone/ANO-RCC-VDZP/ozone_149.25/GMJ_IVECC2_A.csv

>>> COPY /tmp/ozone_149.25/GMJ_e2_A.csv /home/grierjones/DDCASPT2/ozone/ANO-RCC-VDZP/ozone_149.25/GMJ_e2_A.csv

>>> END FOREACH

>>> EXPORT i = C

>>> IF (-FILE GMJ_e2_$i.csv)

>>> COPY /tmp/ozone_149.25/GMJ_RHS_C.csv /home/grierjones/DDCASPT2/ozone/ANO-RCC-VDZP/ozone_149.25/GMJ_RHS_C.csv

>>> COPY /tmp/ozone_149.25/GMJ_IVECW_C.csv /home/grierjones/DDCASPT2/ozone/ANO-RCC-VDZP/ozone_149.25/GMJ_IVECW_C.csv

>>> COPY /tmp/ozone_149.25/GMJ_IVECX_C.csv /home/grierjones/DDCASPT2/ozone/ANO-RCC-VDZP/ozone_149.25/GMJ_IVECX_C.csv

>>> COPY /tmp/ozone_149.25/GMJ_IVECC2_C.csv /home/grierjones/DDCASPT2/ozone/ANO-RCC-VDZP/ozone_149.25/GMJ_IVECC2_C.csv

>>> COPY /tmp/ozone_149.25/GMJ_e2_C.csv /home/grierjones/DDCASPT2/ozone/ANO-RCC-VDZP/ozone_149.25/GMJ_e2_C.csv

>>> END FOREACH

>>> EXPORT i = D

>>> IF (-FILE GMJ_e2_$i.csv)

>>> COPY /tmp/ozone_149.25/GMJ_RHS_D.csv /home/grierjones/DDCASPT2/ozone/ANO-RCC-VDZP/ozone_149.25/GMJ_RHS_D.csv

>>> COPY /tmp/ozone_149.25/GMJ_IVECW_D.csv /home/grierjones/DDCASPT2/ozone/ANO-RCC-VDZP/ozone_149.25/GMJ_IVECW_D.csv

>>> COPY /tmp/ozone_149.25/GMJ_IVECX_D.csv /home/grierjones/DDCASPT2/ozone/ANO-RCC-VDZP/ozone_149.25/GMJ_IVECX_D.csv

>>> COPY /tmp/ozone_149.25/GMJ_IVECC2_D.csv /home/grierjones/DDCASPT2/ozone/ANO-RCC-VDZP/ozone_149.25/GMJ_IVECC2_D.csv

>>> COPY /tmp/ozone_149.25/GMJ_e2_D.csv /home/grierjones/DDCASPT2/ozone/ANO-RCC-VDZP/ozone_149.25/GMJ_e2_D.csv

>>> END FOREACH

.########################.
.# Non-zero return code #.
.########################.

    Timing: Wall=3.51 User=2.60 System=0.91
********************************************
*** WorkDir at /tmp/ozone_149.25 cleaned ***
********************************************
