[Molden Format]
[N_Atoms]
                     2
[Atoms] (AU)
B1          1      5           0.00000000      0.00000000      0.00000000
F2          2      9           0.00000000      0.00000000      2.45664396
[Charge] (Mulliken)
   2.17943101820361     
 -0.179431018203630     
[GTO] (AU)
   1
   s  14
  3.336021700E+04  1.039699991E-04
  4.972095200E+03  5.254399956E-04
  1.125641700E+03  2.509059979E-03
  3.164913600E+02  1.031887991E-02
  1.020072600E+02  3.636632969E-02
  3.629587300E+01  1.064607991E-01
  1.397141000E+01  2.403999880E-01
  5.741156000E+00  3.748581168E-01
  2.494268000E+00  3.100066974E-01
  1.114202000E+00  7.922455933E-02
  4.215490000E-01 -4.947589958E-03
  1.696330000E-01 -7.737119935E-03
  6.853500000E-02 -1.501079987E-03
  2.398700000E-02 -1.333299989E-04
   s  14
  3.336021700E+04 -2.030000008E-05
  4.972095200E+03 -1.025700004E-04
  1.125641700E+03 -4.911300020E-04
  3.164913600E+02 -2.026570008E-03
  1.020072600E+02 -7.261010030E-03
  3.629587300E+01 -2.197722009E-02
  1.397141000E+01 -5.408428022E-02
  5.741156000E+00 -1.022402604E-01
  2.494268000E+00 -1.423595206E-01
  1.114202000E+00 -4.658690019E-02
  4.215490000E-01  3.799402916E-01
  1.696330000E-01  5.890463624E-01
  6.853500000E-02  1.749075107E-01
  2.398700000E-02 -1.142030005E-03
   p   9
  5.500000000E+01  1.229800005E-03
  1.336610100E+01  8.827380035E-03
  4.135394000E+00  3.843340015E-02
  1.481256000E+00  1.150031805E-01
  6.021360000E-01  2.733674011E-01
  2.556360000E-01  4.061972116E-01
  1.111510000E-01  3.014967912E-01
  4.764800000E-02  7.684809030E-02
  1.667700000E-02 -8.170000032E-06
 
   2
   s  14
  1.031094600E+05  1.713099991E-04
  1.528100700E+04  7.123999962E-04
  3.441539200E+03  2.990479984E-03
  9.670948300E+02  1.164036994E-02
  3.140353400E+02  3.968642979E-02
  1.134423000E+02  1.128546094E-01
  4.464472700E+01  2.473650687E-01
  1.894287400E+01  3.672702681E-01
  8.532743000E+00  2.896286985E-01
  3.919401000E+00  7.786681959E-02
  1.568157000E+00  4.562139976E-03
  6.232900000E-01  2.468879987E-03
  2.408610000E-01  1.106309994E-03
  8.430100000E-02  1.739699991E-04
   s  14
  1.031094600E+05 -4.044999995E-05
  1.528100700E+04 -1.682299998E-04
  3.441539200E+03 -7.084299991E-04
  9.670948300E+02 -2.767999996E-03
  3.140353400E+02 -9.611379987E-03
  1.134423000E+02 -2.833957996E-02
  4.464472700E+01 -6.839343991E-02
  1.894287400E+01 -1.237379298E-01
  8.532743000E+00 -1.512859698E-01
  3.919401000E+00 -9.099909988E-03
  1.568157000E+00  3.716257695E-01
  6.232900000E-01  5.500214393E-01
  2.408610000E-01  2.092318697E-01
  8.430100000E-02  8.074639989E-03
   p   9
  2.453302900E+02  1.024860004E-03
  5.691900500E+01  8.344290032E-03
  1.760456800E+01  4.078927016E-02
  6.274995000E+00  1.351370605E-01
  2.447030000E+00  2.798830811E-01
  9.950600000E-01  3.597966414E-01
  4.039730000E-01  3.055347412E-01
  1.548100000E-01  1.354703905E-01
  5.418400000E-02  2.804449011E-02
 
[MO]
Sym=     1a  
Ene=   -27.2180
Spin= Alpha
Occup=    2.00000
   1        -0.00011588
   2        -0.00085581
   3         0.00004633
   4        -0.00000166
   5        -0.00058407
   6         1.00006328
   7        -0.00293778
   8         0.00020843
   9        -0.00000746
  10        -0.00091240
Sym=     2a  
Ene=    -8.9688
Spin= Alpha
Occup=    2.00000
   1         0.99957296
   2         0.01239014
   3        -0.00007157
   4         0.00000256
   5        -0.00051055
   6        -0.00007558
   7         0.00174934
   8        -0.00072533
   9         0.00002596
  10        -0.00355846
Sym=     3a  
Ene=    -2.3324
Spin= Alpha
Occup=    2.00000
   1        -0.02889160
   2        -0.05154490
   3         0.02002251
   4        -0.00071666
   5         0.01595939
   6         0.00437959
   7         1.00176223
   8         0.09134397
   9        -0.00326946
  10         0.05879815
Sym=     4a  
Ene=    -1.4390
Spin= Alpha
Occup=    2.00000
   1        -0.01722555
   2         0.08957814
   3         0.16181179
   4        -0.00579171
   5         0.06584899
   6        -0.00818001
   7        -0.13165770
   8         0.89366874
   9        -0.03198698
  10        -0.25323985
Sym=     5a  
Ene=    -1.4315
Spin= Alpha
Occup=    2.00000
   1        -0.00000000
   2        -0.00000000
   3         0.00600912
   4         0.16788583
   5         0.00000000
   6        -0.00000000
   7        -0.00000000
   8         0.03370658
   9         0.94171187
  10        -0.00000000
Sym=     6a  
Ene=    -1.5870
Spin= Alpha
Occup=    1.97458
   1        -0.06459667
   2         0.35484462
   3        -0.06576804
   4         0.00235403
   5         0.19945513
   6        -0.02606386
   7        -0.10723170
   8        -0.27104640
   9         0.00970153
  10        -0.75287263
Sym=     7a  
Ene=    -0.0009
Spin= Alpha
Occup=    0.02542
   1        -0.06347124
   2        -1.06799305
   3         0.25808745
   4        -0.00923769
   5        -0.41439259
   6         0.06611924
   7         0.54485453
   8        -0.13145652
   9         0.00470521
  10        -0.71858097
Sym=     8a  
Ene=    -0.7394
Spin= Alpha
Occup=    0.00000
   1        -0.00868573
   2         0.31133434
   3         0.80599207
   4        -0.02884878
   5        -0.55252875
   6         0.02386142
   7         0.17087484
   8        -0.33477759
   9         0.01198265
  10         0.01308509
Sym=     9a  
Ene=    -0.6894
Spin= Alpha
Occup=    0.00000
   1        -0.00000000
   2        -0.00000000
   3        -0.03660360
   4        -1.02265024
   5         0.00000000
   6        -0.00000000
   7         0.00000000
   8         0.01548545
   9         0.43264064
  10        -0.00000000
Sym=    10a  
Ene=    -0.5736
Spin= Alpha
Occup=    0.00000
   1        -0.03947894
   2        -0.06048162
   3        -0.57171446
   4         0.02046331
   5        -0.96976101
   6         0.06440495
   7         0.49701396
   8         0.25335364
   9        -0.00906826
  10        -0.28894667
