[Molden Format]
[N_Atoms]
                     2
[Atoms] (AU)
H1          1      1           0.00000000      0.00000000      0.00000000
O2          2      8           0.00000000      0.00000000      1.13383567
[Charge] (Mulliken)
  0.649015611161028     
 -0.649015611161030     
[GTO] (AU)
   1
   s   8
  1.886144500E+02  9.638500027E-04
  2.827659600E+01  7.491960021E-03
  6.424830000E+00  3.759541011E-02
  1.815041000E+00  1.433949804E-01
  5.910630000E-01  3.486363010E-01
  2.121490000E-01  4.382973612E-01
  7.989100000E-02  1.651066105E-01
  2.796200000E-02  2.102287006E-02
 
   2
   s  14
  1.053749500E+05  1.238600013E-04
  1.567924000E+04  5.120100053E-04
  3.534544700E+03  2.152910022E-03
  9.873651600E+02  8.528440089E-03
  3.159787500E+02  3.018049031E-02
  1.116542800E+02  9.099702095E-02
  4.269945100E+01  2.177936423E-01
  1.739559600E+01  3.686245738E-01
  7.438309000E+00  3.366707335E-01
  3.222862000E+00  9.657630101E-02
  1.253877000E+00  2.144520022E-03
  4.951550000E-01  1.194350012E-03
  1.916650000E-01  5.390200056E-04
  6.708300000E-02  2.103400022E-04
   s  14
  1.053749500E+05 -2.815000008E-05
  1.567924000E+04 -1.163000003E-04
  3.534544700E+03 -4.909200013E-04
  9.873651600E+02 -1.946160005E-03
  3.159787500E+02 -7.005300019E-03
  1.116542800E+02 -2.167814006E-02
  4.269945100E+01 -5.641213015E-02
  1.739559600E+01 -1.127053003E-01
  7.438309000E+00 -1.589119704E-01
  3.222862000E+00 -3.355083009E-02
  1.253877000E+00  3.531902810E-01
  4.951550000E-01  5.534199315E-01
  1.916650000E-01  2.301839106E-01
  6.708300000E-02  1.127267003E-02
   p   9
  2.000000000E+02  9.173000030E-04
  4.653336700E+01  7.377140024E-03
  1.462180900E+01  3.483515011E-02
  5.313064000E+00  1.144397004E-01
  2.102525000E+00  2.554966408E-01
  8.502230000E-01  3.722557412E-01
  3.375970000E-01  3.323314911E-01
  1.288920000E-01  1.400847905E-01
  4.511200000E-02  2.395784008E-02
 
[MO]
Sym=     1a  
Ene=   -20.7140
Spin= Alpha
Occup=    1.00000
   1        -0.00389417
   2         1.00048909
   3         0.00367322
   4        -0.00000000
   5        -0.00000000
   6        -0.00430691
Sym=     1a  
Ene=   -20.7140
Spin= Beta
Occup=    1.00000
   1        -0.00389417
   2         1.00048909
   3         0.00367322
   4        -0.00000000
   5        -0.00000000
   6        -0.00430691
Sym=     2a  
Ene=    -1.5433
Spin= Alpha
Occup=    1.00000
   1         0.14878074
   2        -0.02049574
   3         0.81242049
   4        -0.00000000
   5         0.00000000
   6        -0.31558063
Sym=     2a  
Ene=    -1.5433
Spin= Beta
Occup=    1.00000
   1         0.14878074
   2        -0.02049574
   3         0.81242049
   4        -0.00000000
   5         0.00000000
   6        -0.31558063
Sym=     3a  
Ene=    -0.7380
Spin= Alpha
Occup=    1.00000
   1        -0.24206355
   2         0.03252657
   3         0.56557315
   4         0.00000000
   5        -0.00000000
   6         0.80484878
Sym=     3a  
Ene=    -0.7380
Spin= Beta
Occup=    1.00000
   1        -0.24206355
   2         0.03252657
   3         0.56557315
   4         0.00000000
   5        -0.00000000
   6         0.80484878
Sym=     4a  
Ene=    -0.4798
Spin= Alpha
Occup=    1.00000
   1        -0.00000000
   2         0.00000000
   3         0.00000000
   4         0.51700641
   5         0.85598153
   6         0.00000000
Sym=     4a  
Ene=    -0.4798
Spin= Beta
Occup=   -0.00000
   1        -0.00000000
   2         0.00000000
   3         0.00000000
   4         0.35179220
   5         0.93607812
   6         0.00000000
Sym=     5a  
Ene=    -0.0000
Spin= Alpha
Occup=    1.00000
   1         0.00000000
   2        -0.00000000
   3        -0.00000000
   4         0.85598153
   5        -0.51700641
   6        -0.00000000
Sym=     5a  
Ene=    -0.0000
Spin= Beta
Occup=    1.00000
   1         0.00000000
   2        -0.00000000
   3        -0.00000000
   4         0.93607812
   5        -0.35179220
   6        -0.00000000
Sym=     6a  
Ene=     0.8955
Spin= Alpha
Occup=    0.00000
   1         1.98025089
   2        -0.24921173
   3        -1.46760650
   4        -0.00000000
   5         0.00000000
   6         1.02781450
Sym=     6a  
Ene=     0.8955
Spin= Beta
Occup=    0.00000
   1         1.98025089
   2        -0.24921173
   3        -1.46760650
   4        -0.00000000
   5         0.00000000
   6         1.02781450
