   This run of MOLCAS is using the pymolcas driver

                             OPE
                             OPE          NMOL  CASOP  ENMOLC A   SO
                 OPE        NMOLC        AS  OP EN  MO LC     AS  OP
                OPENM       OL CA        SO  PE NM  OL CA     SOP EN
                OP EN      MO   LC       AS  OP ENMOL  CASO   PENMOL
                OP  EN     MO   LC       AS  OP EN     MO     LC ASO
               OP   E  NMOL  C  AS       OP  EN MO     LC     AS  OP
               OP  E   NMO   LC AS        OPEN  MO     LCASOP EN   M
               O  PEN   MO  LCA  SO
            OPE   NMO   L   CAS    OP
        OPENMOL  CASOP     ENMOL   CASOPE
     OPENMOLCA   SOPENMOLCASOPEN   MOLCASOPE
    OPENMOLCAS   OP           EN   MOL    CAS
    OPENMOLCAS       OP  ENM        O     LCA
    OPENMOLCAS    OPEN  MOLCASO     P  E  NMO
    OPENMOLCAS     OP               E  N  MOL
    OPENMOLCA   SO           PENM   O  L  CAS    OPEN    MO    LCAS
    OPENMOLCA   SOP           ENM   O  L  CAS   OP  EN  MOLC  AS   O
    OPENMOLCA   SOPE           NM      O  LCA   S      OP  EN MO
    OPENMOLC                AS         O  PEN   M      OL  CA  SOPE
    OPENMO        LCASOPE  NMOL        C  ASO   P      ENMOLC     AS
    OPE     NMO      LCA  SO     P     E   NM   OL  CA SO  PE N   MO
          OPENMOLCA            SOPE   NMO        LCAS  O    P  ENMO
     OPENMOLCASOPENMOLCASOPENMOLCASOPENMOLCA
        OPENMOLCASOPENMOLCASOPENMOLCASOPE
            OPENMOLCASOPENMOLCASOPENM
               OPENMOLCASOPENMOLCA        version: 1d1d16313-dirty
                   OPENMOLCASO
                       OPE                tag:

 OpenMolcas is free software; you can redistribute it and/or modify it
 under the terms of the GNU Lesser General Public License version 2.1.
 OpenMolcas is distributed in the hope that it will be useful, but it
 is provided "as is" and without any express or implied warranties.
 For more details see the full text of the license in the file
 LICENSE or in <http://www.gnu.org/licenses/>.

                 Copyright (C) The OpenMolcas Authors
           For the author list and the recommended citation,
                   consult the file CONTRIBUTORS.md

           *************************************************
           * pymolcas version py2.28                       *
           *   build c4a6d18ded8cb6cad61d2372a9abd97c      *
           *   (after the EMIL interpreter by V. Veryazov) *
           *************************************************

configuration info
------------------
C Compiler ID: IntelLLVM
C flags: -std=gnu99
Fortran Compiler ID: IntelLLVM
Fortran flags: -standard-semantics -fltconsistency -fpp -i8 -heap-arrays
Definitions: _MOLCAS_;_I8_;_LINUX_
Parallel: OFF (GA=OFF)


   --------------------------------------------------------------------------------
  |
  |              Project: ozone_175.75
  |       Submitted from: /home/grierjones/DDCASPT2/ozone/ANO-RCC-VDZP/ozone_175.75
  |         Scratch area: /tmp/ozone_175.75
  |      Save outputs to: /home/grierjones/DDCASPT2/ozone/ANO-RCC-VDZP/ozone_175.75
  |               Molcas: /home/grierjones/Test/build
  |
  | Scratch area is empty
  |
  |       MOLCAS_DRIVER = /usr/local/pymolcas
  | MOLCAS_KEEP_WORKDIR = NO
  |  MOLCAS_NEW_WORKDIR = YES
  |       MOLCAS_NPROCS = 1
  |        MOLCAS_PRINT = NORMAL
  |       MOLCAS_SOURCE = /home/grierjones/Test
  |    MOLCAS_STRUCTURE = 0
  |
   --------------------------------------------------------------------------------

++ ---------   Input file   ---------

&GATEWAY
coord=ozone_175.75.xyz
Basis = ANO-RCC-VDZP
Group = nosymm
Expert
End of Input

&SEWARD
End of Input

&SCF

>>> COPY $WorkDir/ozone_175.75.scf.h5 $CurrDir/

&RASSCF
Title= RASSCF
FileOrb
/home/grierjones/DDCASPT2/ozone/ANO-RCC-VDZP/ozone_175.50/ozone_175.50.RasOrb
NACTEL
4 0 0
Inactive
10
RAS2
3
Symmetry
1
Spin
1
orblisting
all
ITERation
300 200

>>> COPY $WorkDir/ozone_175.75.rasscf.h5 $CurrDir/

>>> COPY $WorkDir/GMJ_Fock_MO.csv $CurrDir/ozone_175.75.GMJ_Fock_MO.csv

>>> COPY $WorkDir/GMJ_PT2_Fock_MO.csv $CurrDir/ozone_175.75.GMJ_PT2_Fock_MO.csv

&MOTRA
Frozen=0
LUMORB

>>> COPY $WorkDir/GMJ_one_int_indx.csv $CurrDir/ozone_175.75.GMJ_one_int_indx.csv

>>> COPY $WorkDir/GMJ_one_int.csv $CurrDir/ozone_175.75.GMJ_one_int.csv

>>> COPY $WorkDir/GMJ_two_int_indx.csv $CurrDir/ozone_175.75.GMJ_two_int_indx.csv

>>> COPY $WorkDir/GMJ_two_int.csv $CurrDir/ozone_175.75.GMJ_two_int.csv

&CASPT2
Frozen
0
MAXITER
50

>>> FOREACH i IN (B,E,F,G,H)

  >>> FOREACH j IN (P,M)

    >>> IF (-FILE GMJ_e2_${i}_${j}.csv)

      >>> COPY $WorkDir/GMJ_RHS_${i}_${j}.csv $CurrDir/GMJ_RHS_${i}_${j}.csv

      >>> COPY $WorkDir/GMJ_IVECW_${i}_${j}.csv $CurrDir/GMJ_IVECW_${i}_${j}.csv

      >>> COPY $WorkDir/GMJ_IVECX_${i}_${j}.csv $CurrDir/GMJ_IVECX_${i}_${j}.csv

      >>> COPY $WorkDir/GMJ_IVECC2_${i}_${j}.csv $CurrDir/GMJ_IVECC2_${i}_${j}.csv

      >>> COPY $WorkDir/GMJ_e2_${i}_${j}.csv $CurrDir/GMJ_e2_${i}_${j}.csv

    >>> END IF

  >>> END FOREACH

>>> END FOREACH

>>> FOREACH i IN (A,C,D)

  >>> IF (-FILE GMJ_e2_$i.csv)

    >>> COPY $WorkDir/GMJ_RHS_$i.csv $CurrDir/GMJ_RHS_$i.csv

    >>> COPY $WorkDir/GMJ_IVECW_$i.csv $CurrDir/GMJ_IVECW_$i.csv

    >>> COPY $WorkDir/GMJ_IVECX_$i.csv $CurrDir/GMJ_IVECX_$i.csv

    >>> COPY $WorkDir/GMJ_IVECC2_$i.csv $CurrDir/GMJ_IVECC2_$i.csv

    >>> COPY $WorkDir/GMJ_e2_$i.csv $CurrDir/GMJ_e2_$i.csv

  >>> END IF

>>> END FOREACH

-- ----------------------------------

--- Start Module: gateway at Fri Jan 24 18:28:43 2025 ---
 
()()()()()()()()()()()()()()()()()()()()()()()()()()()()()()()()()()()()()()()()()()()()()()()()()()

                                              &GATEWAY

                                   only a single process is used
                       available to each process: 2.0 GB of memory, 1 thread?
()()()()()()()()()()()()()()()()()()()()()()()()()()()()()()()()()()()()()()()()()()()()()()()()()()
 
 ###############################################################################
 ###############################################################################
 ###                                                                         ###
 ###                                                                         ###
 ###                                                                         ###
 ###    WARNING: EXPERT option is ON!                                        ###
 ###                                                                         ###
 ###                                                                         ###
 ###############################################################################
 ###############################################################################
 
++    Symmetry information:
      ---------------------
 
                    Character Table for C1 
 
                             E  
                    a        1  x, y, xy, Rz, z, xz, Ry, yz, Rx, I
--
 
 
++    Basis set information:
      ----------------------
 
 
      Basis set label: O.ANO-RCC...3S2P1D.
 
      Electronic valence basis set:
      ------------------
      Associated Effective Charge   8.000000 au
      Associated Actual Charge      8.000000 au
      Nuclear Model: Point charge
 
      Shell  nPrim  nBasis  Cartesian Spherical Contaminant
         s      14       3        X                  
         p       9       2        X                  
         d       4       1                 X         
--
 
 
++    Molecular structure info:
      -------------------------
 
                    ************************************************ 
                    **** Cartesian Coordinates / Bohr, Angstrom **** 
                    ************************************************ 
 
     Center  Label                x              y              z                     x              y              z
        1      O1               0.089550       2.413409       0.000000              0.047388       1.277121       0.000000
        2      O2               0.000000       0.000000       0.000000              0.000000       0.000000       0.000000
        3      O3               0.089550      -2.413409       0.000000              0.047388      -1.277121       0.000000
 
                    *************************************** 
                    *    InterNuclear Distances / Bohr    * 
                    *************************************** 
 
               1 O1            2 O2            3 O3    
    1 O1       0.000000
    2 O2       2.415070        0.000000
    3 O3       4.826818        2.415070        0.000000
 
                    ******************************************* 
                    *    InterNuclear Distances / Angstrom    * 
                    ******************************************* 
 
               1 O1            2 O2            3 O3    
    1 O1       0.000000
    2 O2       1.278000        0.000000
    3 O3       2.554242        1.278000        0.000000
 
                    ************************************** 
                    *    Valence Bond Angles / Degree    * 
                    ************************************** 
                          Atom centers                 Phi
                      1 O1       2 O2       3 O3       175.75
--
 
 
            Nuclear Potential Energy             66.25979296 au
 
 ###############################################################################
 ###############################################################################
 ###                                                                         ###
 ###                                                                         ###
 ###    There were warnings during the execution                             ###
 ###    Please, check the output with care!                                  ###
 ###                                                                         ###
 ###                                                                         ###
 ###############################################################################
 ###############################################################################
--- Stop Module: gateway at Fri Jan 24 18:28:43 2025 /rc=_RC_ALL_IS_WELL_ ---
*** files: xmldump
    saved to directory /home/grierjones/DDCASPT2/ozone/ANO-RCC-VDZP/ozone_175.75

--- Start Module: seward at Fri Jan 24 18:28:43 2025 ---
 
()()()()()()()()()()()()()()()()()()()()()()()()()()()()()()()()()()()()()()()()()()()()()()()()()()

                                              &SEWARD

                                   only a single process is used
                       available to each process: 2.0 GB of memory, 1 thread?
()()()()()()()()()()()()()()()()()()()()()()()()()()()()()()()()()()()()()()()()()()()()()()()()()()
 
 ###############################################################################
 ###############################################################################
 ###                                                                         ###
 ###                                                                         ###
 ###                                                                         ###
 ###    WARNING: EXPERT option is ON!                                        ###
 ###                                                                         ###
 ###                                                                         ###
 ###############################################################################
 ###############################################################################
               SEWARD will generate:
                  Multipole Moment integrals up to order  2
                  Kinetic Energy integrals
                  Nuclear Attraction integrals (point charge)
                  One-Electron Hamiltonian integrals
                  Velocity integrals
                  Relativistic Douglas-Kroll-Hess integrals:
                    - Parametrization         : EXP
                    - DKH order of Hamiltonian: 2
                    - DKH order of Properties : 0
                         - multipole moment operators
                         - electric potential operators
                         - contact operators
                  Atomic mean-field integrals
                  Two-Electron Repulsion integrals
 
                   Integrals are discarded if absolute value <: 0.10E-13
                   Integral cutoff threshold is set to       <: 0.10E-15
 
            Nuclear Potential Energy             66.25979296 au
 
 
      Basis set specifications :
      Symmetry species         a  
      Basis functions           42
 
 
  Input file to MOLDEN was generated!
 
 ###############################################################################
 ###############################################################################
 ###                                                                         ###
 ###                                                                         ###
 ###    There were warnings during the execution                             ###
 ###    Please, check the output with care!                                  ###
 ###                                                                         ###
 ###                                                                         ###
 ###############################################################################
 ###############################################################################
forrtl: warning (525): IEEE_DIVIDE_BY_ZERO is signaling
forrtl: warning (526): IEEE_INVALID is signaling
forrtl: warning (528): IEEE_UNDERFLOW is signaling
--- Stop Module: seward at Fri Jan 24 18:28:44 2025 /rc=_RC_ALL_IS_WELL_ ---
*** files: ozone_175.75.GssOrb ozone_175.75.guessorb.h5 ozone_175.75.guessorb.molden xmldump
    saved to directory /home/grierjones/DDCASPT2/ozone/ANO-RCC-VDZP/ozone_175.75
--- Module seward spent 1 second ---

*** symbolic link created: INPORB -> ozone_175.75.GssOrb
--- Start Module: scf at Fri Jan 24 18:28:44 2025 ---
 
()()()()()()()()()()()()()()()()()()()()()()()()()()()()()()()()()()()()()()()()()()()()()()()()()()

                                                &SCF

                                   only a single process is used
                       available to each process: 2.0 GB of memory, 1 thread?
()()()()()()()()()()()()()()()()()()()()()()()()()()()()()()()()()()()()()()()()()()()()()()()()()()
 
++    Input section:
      --------------
 
      Header of the integral files:
      
       Integrals generated by seward 4.2.0  , Fri Jan 24 18:28:43 2025
 
 
      Cartesian coordinates in Angstrom:
      -----------------------------------------------------
      No.  Label        X            Y            Z        
      -----------------------------------------------------
       1   O1         0.04738800   1.27712100   0.00000000
       2   O2         0.00000000   0.00000000   0.00000000
       3   O3         0.04738800  -1.27712100   0.00000000
      -----------------------------------------------------
      Nuclear repulsion energy =   66.25979296
--
 
++    Orbital specifications:
      -----------------------
 
      Symmetry species               1
                                     a
      Frozen orbitals                0
      Aufbau                        12
      Start temperature = 0.500
      End temperature   = 0.010
      Temperature Factor= 0.460
      Deleted orbitals               0
      Total number of orbitals      42
      Number of basis functions     42
--
 
      Molecular charge                           0.000
 
++    Optimization specifications:
      ----------------------------
 
      SCF Algorithm: Conventional
      Minimized density differences are used
      Number of density matrices in core                5
      Maximum number of NDDO SCF iterations           400
      Maximum number of HF SCF iterations             400
      Threshold for SCF energy change            0.10E-08
      Threshold for density matrix               0.10E-03
      Threshold for Fock matrix                  0.15E-03
      Threshold for linear dependence            0.10E-08
      Threshold at which DIIS is turned on       0.15E+00
      Threshold at which QNR/C2DIIS is turned on 0.75E-01
      Threshold for Norm(delta) (QNR/C2DIIS)     0.20E-04
      DIIS extrapolation of the SCF procedure
      All orbitals punched on: SCFORB
--
 
      Input vectors read from INPORB
      Orbital file label: *Guess orbitals
 
 
++ Convergence information
                                   SCF        iterations: Energy and convergence statistics
 
Iter     Tot. SCF        One-elec.       Two-elec.     Energy      Max Dij or  Max Fij      DNorm      TNorm      AccCon     Time
         Energy          Energy          Energy        Change      Delta Norm                                                in Sec.
   1  -221.451326331  -440.165405100   152.454285805   0.00E+00    0.11E+00*   0.70E+00*    0.77E+01   0.76E+02   None         0.
   2  -222.511715849  -435.255610654   146.484101840  -0.11E+01*   0.11E+00*   0.80E-01*    0.34E+01   0.75E+02   EDIIS        0.
   3  -223.809761964  -441.642708992   151.573154063  -0.13E+01*   0.93E-01*   0.12E+00*    0.30E+01   0.76E+02   EDIIS        0.
   4  -224.121307686  -438.848878002   148.467777351  -0.31E+00*   0.13E+00*   0.91E-01*    0.14E+01   0.75E+02   EDIIS        0.
   5  -224.126660063  -440.875201273   150.488748245  -0.54E-02*   0.46E-01*   0.59E-01*    0.54E+00   0.76E+02   EDIIS        0.
   6  -224.213500080  -440.064404960   149.591111915  -0.87E-01*   0.38E-01*   0.29E-01*    0.13E+01   0.76E+02   EDIIS        0.
   7  -224.372313754  -440.295259303   149.663152584  -0.16E+00*   0.92E-01*   0.34E-01*    0.21E+00   0.76E+02   EDIIS        0.
   8  -224.377179243  -440.144854466   149.507882257  -0.49E-02*   0.35E-01*   0.34E-01*    0.22E+00   0.76E+02   EDIIS        0.
 
       Fermi aufbau procedure completed!
      nOcc=   12
 
   9  -224.378126122  -440.320777640   149.682858554  -0.95E-03*   0.31E-01*   0.18E-01*    0.64E-01   0.76E+02   EDIIS        0.
  10  -224.379594209  -440.197648790   149.558261616  -0.15E-02*   0.11E-01*   0.10E-01*    0.19E-01   0.76E+02   EDIIS        0.
  11  -224.379703821  -440.254200822   149.614704036  -0.11E-03*   0.13E-01*   0.52E-02*    0.42E-02   0.76E+02   EDIIS        0.
  12  -224.379827096  -440.212990089   149.573370028  -0.12E-03*   0.50E-02*   0.35E-02*    0.12E-02   0.76E+02   EDIIS        0.
  13  -224.379846502  -440.236883369   149.597243903  -0.19E-04*   0.37E-02*   0.17E-02*    0.54E-03   0.76E+02   c2DIIS       0.
  14  -224.379873260  -440.223230499   149.583564274  -0.27E-04*   0.12E-02*   0.79E-03*    0.20E-03   0.76E+02   QNRc2DIIS    0.
  15  -224.379877482  -440.225964791   149.586294344  -0.42E-05*   0.23E-02*   0.65E-03*    0.44E-04   0.76E+02   QNRc2DIIS    0.
  16  -224.379880974  -440.224186400   149.584512461  -0.35E-05*   0.32E-03*   0.11E-03     0.18E-03   0.76E+02   QNRc2DIIS    0.
  17  -224.379881123  -440.224014378   149.584340290  -0.15E-06*   0.52E-03*   0.72E-04     0.74E-02   0.76E+02   QNRc2DIIS    0.
  18  -224.379881246  -440.224086324   149.584412113  -0.12E-06*   0.51E-04*   0.13E-04     0.87E-03   0.76E+02   QNRc2DIIS    0.
  19  -224.379881248  -440.224093674   149.584419461  -0.24E-08*   0.14E-05    0.96E-06     0.34E-02   0.76E+02   QNRc2DIIS    0.
  20  -224.379881248  -440.224105277   149.584431064  -0.63E-11    0.91E-06    0.42E-06     0.42E-02   0.76E+02   QNRc2DIIS    0.
 
       Convergence after 20 Macro Iterations
--
 
 *****************************************************************************************************************************
 *                                                                                                                           *
 *                                             SCF/KS-DFT Program, Final results                                             *
 *                                                                                                                           *
 *                                                                                                                           *
 *                                                                                                                           *
 *                                                       Final Results                                                       *
 *                                                                                                                           *
 *****************************************************************************************************************************
 
::    Total SCF energy                               -224.3798812481
      One-electron energy                            -440.2241052772
      Two-electron energy                             149.5844310642
      Nuclear repulsion energy                         66.2597929648
      Kinetic energy (interpolated)                   225.6531378014
      Virial theorem                                    0.9943574613
      Total spin, S(S+1)                                0.0000000000
      Total spin, S                                     0.0000000000
      Max non-diagonal density matrix element           0.0000013885
      Max non-diagonal Fock matrix element              0.0000002513
 
 
      All orbitals with orbital energies smaller than  E(LUMO)+0.5 are printed
 
++    Molecular orbitals:
      -------------------
 
      Title: SCF orbitals

      Molecular orbitals for symmetry species 1: a  
 
          Orbital            1         2         3         4         5         6         7         8         9        10    
          Energy          -20.8371  -20.7362  -20.7362   -1.7039   -1.4691   -1.0595   -0.8402   -0.7830   -0.7494   -0.6245
          Occ. No.          2.0000    2.0000    2.0000    2.0000    2.0000    2.0000    2.0000    2.0000    2.0000    2.0000
 
        1 O1     1s         0.0029   -0.7072    0.7072   -0.0156    0.0096    0.0144   -0.0010   -0.0197   -0.0000    0.0016
        2 O1     2s         0.0001   -0.0008    0.0005    0.3273   -0.5738    0.6554   -0.0232   -0.4126   -0.0000    0.0207
        3 O1     3s         0.0001   -0.0002   -0.0001   -0.0243    0.0127    0.0190   -0.0017   -0.0261   -0.0000    0.0018
        4 O1     2px        0.0000    0.0000   -0.0000   -0.0032    0.0058    0.0117    0.3451   -0.0481    0.0000   -0.7033
        5 O1     3px        0.0001    0.0000    0.0000    0.0013   -0.0008   -0.0018   -0.0324    0.0026   -0.0000    0.0054
        6 O1     2py       -0.0002    0.0009   -0.0010   -0.1016    0.0936    0.1815   -0.0293   -0.4241   -0.0000    0.0454
        7 O1     3py       -0.0000   -0.0005    0.0003    0.0251   -0.0188   -0.0273    0.0025    0.0287    0.0000    0.0000
        8 O1     2pz       -0.0000   -0.0000   -0.0000   -0.0000    0.0000    0.0000   -0.0000    0.0000    0.4245    0.0000
        9 O1     3pz       -0.0000    0.0000    0.0000    0.0000   -0.0000    0.0000    0.0000    0.0000   -0.0241   -0.0000
       10 O1     3d2-       0.0000   -0.0000    0.0000    0.0006   -0.0014   -0.0011   -0.0230    0.0029   -0.0000    0.0144
       11 O1     3d1-      -0.0000    0.0000    0.0000    0.0000    0.0000   -0.0000    0.0000    0.0000   -0.0310   -0.0000
       12 O1     3d0        0.0000    0.0000   -0.0001   -0.0082    0.0083    0.0071   -0.0011   -0.0173    0.0000    0.0013
       13 O1     3d1+       0.0000    0.0000   -0.0000    0.0000    0.0000    0.0000   -0.0000    0.0000   -0.0009    0.0000
       14 O1     3d2+      -0.0001   -0.0002    0.0001   -0.0168    0.0156    0.0152   -0.0033   -0.0325   -0.0000    0.0028
       15 O2     1s         0.9999   -0.0000   -0.0042   -0.0207    0.0000   -0.0148   -0.0006    0.0000   -0.0000    0.0000
       16 O2     2s         0.0000   -0.0000   -0.0008    0.6725    0.0000   -0.6246   -0.0066    0.0000   -0.0000    0.0000
       17 O2     3s        -0.0010   -0.0000   -0.0007   -0.0350    0.0000   -0.0153   -0.0005    0.0000   -0.0000    0.0000
       18 O2     2px        0.0001   -0.0000   -0.0000    0.0123   -0.0000    0.0217    0.7487   -0.0000    0.0000   -0.0000
       19 O2     3px       -0.0002   -0.0000   -0.0000   -0.0027    0.0000   -0.0028   -0.0649    0.0000   -0.0000    0.0000
       20 O2     2py       -0.0000    0.0010   -0.0000   -0.0000   -0.3272   -0.0000   -0.0000    0.5390   -0.0000   -0.0330
       21 O2     3py       -0.0000    0.0013   -0.0000   -0.0000    0.0821   -0.0000    0.0000   -0.0834   -0.0000    0.0010
       22 O2     2pz       -0.0000   -0.0000   -0.0000   -0.0000    0.0000   -0.0000   -0.0000    0.0000    0.6361   -0.0000
       23 O2     3pz        0.0000   -0.0000   -0.0000   -0.0000   -0.0000    0.0000    0.0000   -0.0000   -0.0140   -0.0000
       24 O2     3d2-      -0.0000    0.0000   -0.0000   -0.0000   -0.0047   -0.0000   -0.0000    0.0031    0.0000   -0.0382
       25 O2     3d1-      -0.0000    0.0000    0.0000    0.0000    0.0000    0.0000   -0.0000   -0.0000   -0.0000    0.0000
       26 O2     3d0       -0.0003    0.0000    0.0003   -0.0183    0.0000    0.0015   -0.0025    0.0000   -0.0000    0.0000
       27 O2     3d1+      -0.0000   -0.0000    0.0000    0.0000   -0.0000    0.0000   -0.0000    0.0000    0.0039   -0.0000
       28 O2     3d2+       0.0002    0.0000    0.0004   -0.0330    0.0000   -0.0023    0.0025    0.0000    0.0000    0.0000
       29 O3     1s         0.0029    0.7072    0.7072   -0.0156   -0.0096    0.0144   -0.0010    0.0197   -0.0000   -0.0016
       30 O3     2s         0.0001    0.0008    0.0005    0.3273    0.5738    0.6554   -0.0232    0.4126   -0.0000   -0.0207
       31 O3     3s         0.0001    0.0002   -0.0001   -0.0243   -0.0127    0.0190   -0.0017    0.0261   -0.0000   -0.0018
       32 O3     2px        0.0000   -0.0000   -0.0000   -0.0032   -0.0058    0.0117    0.3451    0.0481    0.0000    0.7033
       33 O3     3px        0.0001   -0.0000    0.0000    0.0013    0.0008   -0.0018   -0.0324   -0.0026   -0.0000   -0.0054
       34 O3     2py        0.0002    0.0009    0.0010    0.1016    0.0936   -0.1815    0.0293   -0.4241    0.0000    0.0454
       35 O3     3py        0.0000   -0.0005   -0.0003   -0.0251   -0.0188    0.0273   -0.0025    0.0287   -0.0000    0.0000
       36 O3     2pz       -0.0000    0.0000    0.0000    0.0000    0.0000   -0.0000   -0.0000   -0.0000    0.4245   -0.0000
       37 O3     3pz       -0.0000    0.0000    0.0000   -0.0000   -0.0000    0.0000    0.0000    0.0000   -0.0241    0.0000
       38 O3     3d2-      -0.0000   -0.0000   -0.0000   -0.0006   -0.0014    0.0011    0.0230    0.0029    0.0000    0.0144
       39 O3     3d1-       0.0000    0.0000    0.0000   -0.0000   -0.0000    0.0000   -0.0000    0.0000    0.0310   -0.0000
       40 O3     3d0        0.0000   -0.0000   -0.0001   -0.0082   -0.0083    0.0071   -0.0011    0.0173   -0.0000   -0.0013
       41 O3     3d1+       0.0000   -0.0000   -0.0000    0.0000    0.0000   -0.0000    0.0000   -0.0000   -0.0009    0.0000
       42 O3     3d2+      -0.0001    0.0002    0.0001   -0.0168   -0.0156    0.0152   -0.0033    0.0325   -0.0000   -0.0028
 
          Orbital           11        12        13        14        15        16    
          Energy           -0.5186   -0.4701   -0.0262    0.1300    0.2857    0.4693
          Occ. No.          2.0000    2.0000    0.0000    0.0000    0.0000    0.0000
 
        1 O1     1s        -0.0000    0.0004    0.0000    0.0249   -0.1651   -0.0062
        2 O1     2s        -0.0000   -0.0010    0.0000    0.3207   -1.1950   -0.0432
        3 O1     3s         0.0000    0.0031    0.0000    0.0066   -0.4307   -0.0250
        4 O1     2px       -0.0000    0.6678    0.0000    0.0129    0.0357   -0.1011
        5 O1     3px       -0.0000    0.0421    0.0000    0.0046    0.0295    0.4343
        6 O1     2py        0.0000    0.0213    0.0000   -0.8068    0.5958    0.0342
        7 O1     3py        0.0000   -0.0035   -0.0000   -0.1632    0.6584    0.0698
        8 O1     2pz       -0.7022   -0.0000    0.6492   -0.0000    0.0000    0.0000
        9 O1     3pz       -0.0346   -0.0000    0.1294    0.0000    0.0000   -0.0000
       10 O1     3d2-       0.0000    0.0044    0.0000    0.0022   -0.0026    0.0285
       11 O1     3d1-       0.0246   -0.0000    0.0141    0.0000    0.0000   -0.0000
       12 O1     3d0       -0.0000    0.0007    0.0000   -0.0004    0.0200    0.0016
       13 O1     3d1+       0.0006   -0.0000    0.0006   -0.0000    0.0000   -0.0000
       14 O1     3d2+       0.0000    0.0018    0.0000   -0.0007    0.0333    0.0056
       15 O2     1s         0.0000    0.0042    0.0000   -0.1162    0.0000    0.0205
       16 O2     2s         0.0000    0.0525    0.0000   -1.1095    0.0000    0.1261
       17 O2     3s         0.0000    0.0079    0.0000   -0.2560   -0.0000    0.0485
       18 O2     2px       -0.0000   -0.7446   -0.0000   -0.0854    0.0000   -0.0806
       19 O2     3px       -0.0000   -0.0448   -0.0000   -0.0167    0.0000    0.4490
       20 O2     2py        0.0000   -0.0000   -0.0000    0.0000    1.3321   -0.0000
       21 O2     3py        0.0000   -0.0000   -0.0000    0.0000    1.1216   -0.0000
       22 O2     2pz       -0.0000    0.0000   -0.9028   -0.0000   -0.0000    0.0000
       23 O2     3pz       -0.0000    0.0000   -0.1695   -0.0000    0.0000   -0.0000
       24 O2     3d2-      -0.0000    0.0000    0.0000    0.0000    0.0064    0.0000
       25 O2     3d1-      -0.0557    0.0000    0.0000   -0.0000   -0.0000    0.0000
       26 O2     3d0        0.0000    0.0040    0.0000   -0.0399   -0.0000   -0.0094
       27 O2     3d1+      -0.0000    0.0000   -0.0014    0.0000    0.0000    0.0000
       28 O2     3d2+       0.0000    0.0056    0.0000   -0.0735   -0.0000   -0.0218
       29 O3     1s         0.0000    0.0004   -0.0000    0.0249    0.1651   -0.0062
       30 O3     2s         0.0000   -0.0010   -0.0000    0.3207    1.1950   -0.0432
       31 O3     3s         0.0000    0.0031    0.0000    0.0066    0.4307   -0.0250
       32 O3     2px        0.0000    0.6678    0.0000    0.0129   -0.0357   -0.1011
       33 O3     3px        0.0000    0.0421    0.0000    0.0046   -0.0295    0.4343
       34 O3     2py        0.0000   -0.0213   -0.0000    0.8068    0.5958   -0.0342
       35 O3     3py        0.0000    0.0035    0.0000    0.1632    0.6584   -0.0698
       36 O3     2pz        0.7022   -0.0000    0.6492    0.0000   -0.0000    0.0000
       37 O3     3pz        0.0346   -0.0000    0.1294   -0.0000    0.0000   -0.0000
       38 O3     3d2-       0.0000   -0.0044   -0.0000   -0.0022   -0.0026   -0.0285
       39 O3     3d1-       0.0246    0.0000   -0.0141   -0.0000   -0.0000    0.0000
       40 O3     3d0       -0.0000    0.0007    0.0000   -0.0004   -0.0200    0.0016
       41 O3     3d1+      -0.0006   -0.0000    0.0006    0.0000   -0.0000   -0.0000
       42 O3     3d2+      -0.0000    0.0018    0.0000   -0.0007   -0.0333    0.0056
--
 
 
++    Molecular charges:
      ------------------
 
      Mulliken charges per centre and basis function type
      ---------------------------------------------------
 
                O1      O2      O3    
      1s       2.0003  1.9999  2.0003
      2s       1.9379  1.6692  1.9379
      2px      2.0151  1.9925  2.0151
      2pz      1.4556  1.0401  1.4556
      2py      0.7175  1.0101  0.7175
      3s      -0.0153 -0.0242 -0.0153
      3px     -0.0202 -0.0456 -0.0202
      3pz     -0.0107 -0.0057 -0.0107
      3py     -0.0138  0.0270 -0.0138
      3d2+     0.0202  0.0171  0.0202
      3d1+     0.0000  0.0001  0.0000
      3d0      0.0057  0.0045  0.0057
      3d1-     0.0136  0.0485  0.0136
      3d2-     0.0118  0.0311  0.0118
      Total    8.1177  7.7646  8.1177
 
      N-E     -0.1177  0.2354 -0.1177
 
      Total electronic charge=   24.000000
 
      Total            charge=   -0.000000
--
 
 
  Input file to MOLDEN was generated!
 
 
++    Static properties:
      ------------------
 
 
      LoProp Charges per center
 

                   O1       O2       O3    
      Nuclear      8.0000   8.0000   8.0000
      Electronic  -8.1650  -7.6699  -8.1650
 
      Total       -0.1650   0.3301  -0.1650
--
 
 
++    Natural Bond Order analysis
      ---------------------------
      Based on LoProp computed density
      -------------------------------------------------------------------------------------
      Atom A       Atom B       Bond Order | Atom A       Atom B       Bond Order
        O1           O2             2.000  |   O2           O3             2.000
      -------------------------------------------------------------------------------------
      NBO located     16.000 core electrons.
      NBO located      8.000 electrons involved in    2 bonds.
--
 
 
++    Molecular properties:
      ---------------------
 
      Charge (e):
                      =   -0.0000
      Dipole Moment (Debye):
      Origin of the operator (Ang)=    0.0000    0.0000    0.0000
                   X=  4.0018E-03               Y=  1.4133E-10               Z=  9.7543E-14           Total=  4.0018E-03
      Quadrupole Moment (Debye*Ang):
      Origin of the operator (Ang)=    0.0316    0.0000    0.0000
                  XX= -1.6343E+01              XY=  9.6805E-12              XZ=  3.9887E-12              YY= -1.6994E+01
                  YZ=  2.5259E-13              ZZ= -1.5156E+01
      In traceless form (Debye*Ang)
                  XX= -2.6840E-01              XY=  1.4521E-11              XZ=  5.9831E-12              YY= -1.2439E+00
                  YZ=  3.7889E-13              ZZ=  1.5123E+00
--
 
 
  Input file to MOLDEN was generated!
 
 ###############################################################################
 ###############################################################################
 ###                                                                         ###
 ###                                                                         ###
 ###    RunFile label nBas                                                   ###
 ###    was used       78 times                                              ###
 ###                                                                         ###
 ###                                                                         ###
 ###############################################################################
 ###############################################################################
forrtl: warning (528): IEEE_UNDERFLOW is signaling
--- Stop Module: scf at Fri Jan 24 18:28:45 2025 /rc=_RC_ALL_IS_WELL_ ---
*** files: ozone_175.75.LprOrb ozone_175.75.LoProp.molden ozone_175.75.scf.molden ozone_175.75.ScfOrb ozone_175.75.scf.h5 xmldump
    saved to directory /home/grierjones/DDCASPT2/ozone/ANO-RCC-VDZP/ozone_175.75

>>> COPY /tmp/ozone_175.75/ozone_175.75.scf.h5 /home/grierjones/DDCASPT2/ozone/ANO-RCC-VDZP/ozone_175.75/

*** symbolic link created: INPORB -> ozone_175.75.ScfOrb
--- Start Module: rasscf at Fri Jan 24 18:28:45 2025 ---
 
()()()()()()()()()()()()()()()()()()()()()()()()()()()()()()()()()()()()()()()()()()()()()()()()()()

                                              &RASSCF

                                   only a single process is used
                       available to each process: 2.0 GB of memory, 1 thread?
()()()()()()()()()()()()()()()()()()()()()()()()()()()()()()()()()()()()()()()()()()()()()()()()()()
 
 
 *************** WARNING ****************
 ###############################################################################
 ###############################################################################
 ###                                                                         ###
 ###                                                                         ###
 ###    Too many macro-iterations.                                           ###
 ###                                                                         ###
 ###                                                                         ###
 ###############################################################################
 ###############################################################################
 Too many macro-iterations requested.
 Reset to maximum, new MAXIT=     200
 ****************************************
 
 *************** WARNING ****************
 ###############################################################################
 ###############################################################################
 ###                                                                         ###
 ###                                                                         ###
 ###    Too many SX-iterations.                                              ###
 ###                                                                         ###
 ###                                                                         ###
 ###############################################################################
 ###############################################################################
 Too many SX-iterations requested.
 Reset to maximum, new ITMAX=     100
 ****************************************
 
      Header of the ONEINT file:
      --------------------------
      
      Integrals generated by seward 4.2.0  , Fri Jan 24 18:28:43 2025
 
 
      OrdInt status: non-squared
 
 
      Cartesian coordinates in Angstrom:
      -----------------------------------------------------
      No.  Label        X            Y            Z        
      -----------------------------------------------------
       1   O1         0.04738800   1.27712100   0.00000000
       2   O2         0.00000000   0.00000000   0.00000000
       3   O3         0.04738800  -1.27712100   0.00000000
      -----------------------------------------------------
      Nuclear repulsion energy =   66.25979296
 
++    Wave function specifications:
      -----------------------------
 
      Number of closed shell electrons          20
      Number of electrons in active shells       4
      Max number of holes in RAS1 space          0
      Max nr of electrons in RAS3 space          0
      Number of inactive orbitals               10
      Number of active orbitals                  3
      Number of secondary orbitals              29
      Spin quantum number                      0.0
      State symmetry                             1
--
 
++    Orbital specifications:
      -----------------------
 
      Symmetry species                           1
                                                 a
      Frozen orbitals                            0
      Inactive orbitals                         10
      Active orbitals                            3
      RAS1 orbitals                              0
      RAS2 orbitals                              3
      RAS3 orbitals                              0
      Secondary orbitals                        29
      Deleted orbitals                           0
      Number of basis functions                 42
--
 
++    CI expansion specifications:
      ----------------------------
 
      Number of CSFs                             6
      Number of determinants                     6
      Number of root(s) required                 1
      Root chosen for geometry opt.              1
      CI root used                               1
         
      highest root included in the CI            1
      max. size of the explicit Hamiltonian      6
--
 
++    Optimization specifications:
      ----------------------------
 
      RASSCF algorithm: Conventional
      Maximum number of macro iterations       200
      Maximum number of SX iterations          100
      Threshold for RASSCF energy            0.100E-07
      Threshold for max MO rotation          0.100E+00
      Threshold for max BLB element          0.100E-03
      Level shift parameter                  0.500E+00
      Make Quasi-Newton update
--
 
      The MO-coefficients are taken from the file:
      /home/grierjones/DDCASPT2/ozone/ANO-RCC-VDZP/ozone_175.50/ozone_175.50.RasOrb                                                   
      Title: RASSCF average (pseudo-natural) orbitals                                      
 
      Total molecular charge    0.00
 
      ************************************************************************************************************************
      *                                                                                                                      *
      *                                            Wave function control section                                             *
      *                                                                                                                      *
      ************************************************************************************************************************
 
 
                                         RASSCF iterations: Energy and convergence statistics
                                         ----------------------------------------------------
 
      Iter CI   SX   CI       RASSCF       Energy    max ROT     max BLB   max BLB  Level Ln srch  Step   QN   Walltime
          iter iter root      energy       change     param      element    value   shift minimum  type update hh:mm:ss
 Nr of preliminary CI iterations:   1
        1   1    3    1  -224.45118241    0.00E+00   0.73E-03    7  14 1 -0.17E-02*  0.19   0.00    SX    NO    0:00:00
        2   1    3    1  -224.45118989   -0.75E-05* -0.49E-03    7  14 1 -0.10E-02*  0.19   0.00    SX    NO    0:00:00
        3   1    3    1  -224.45119188   -0.20E-05* -0.35E-03    7  14 1 -0.58E-03*  0.19   0.00    SX    NO    0:00:00
        4   1    3    1  -224.45119259   -0.71E-06* -0.26E-03   10  14 1  0.40E-03*  0.19   0.00    SX    NO    0:00:00
        5   1    3    1  -224.45119289   -0.30E-06* -0.39E-03   10  14 1  0.31E-03*  0.19   2.50    LS   YES    0:00:00
        6   1    3    1  -224.45119313   -0.24E-06* -0.29E-03   10  14 1  0.17E-03*  0.19   1.43    QN   YES    0:00:00
        7   1    3    1  -224.45119321   -0.85E-07* -0.23E-03    7  14 1  0.12E-03*  0.19   1.41    QN   YES    0:00:00
        8   1    3    1  -224.45119326   -0.46E-07*  0.11E-03    7  14 1  0.92E-04   0.19   1.49    QN   YES    0:00:00
        9   1    3    1  -224.45119327   -0.15E-07*  0.23E-04    7  14 1  0.28E-04   0.19   0.97    QN   YES    0:00:00
       10   1    2    1  -224.45119328   -0.80E-09  -0.66E-05    8  19 1  0.24E-04   0.19   0.68    QN   YES    0:00:00
      Convergence after 10 iterations
 
  Dmat in MO in SXCTL bf call to SXHAM                                                                                    
  mat. size =     3x    3
 
        1.9828873793426036
        0.0000000000006003      1.7842975308620233
        0.0005000235793372      0.0000000000015264      0.2328150897953710
       11   1    2    1  -224.45119328   -0.27E-09  -0.66E-05   10  18 1  0.29E-05   0.19   0.68    QN   YES    0:00:00
 
      ************************************************************************************************************************
                                                      Wave function printout:
                       occupation of active orbitals, and spin coupling of open shells (u,d: Spin up or down)
      ************************************************************************************************************************
 
      Note: transformation to natural orbitals
      has been made, which may change the order of the CSFs.
 
      printout of CI-coefficients larger than  0.05 for root  1
      energy=    -224.451193
      conf/sym  111     Coeff  Weight
             1  220  -0.94000 0.88359
             3  202   0.32841 0.10785
             6  022   0.09250 0.00856
 
      Natural orbitals and occupation numbers for root  1
      sym 1:   1.982888   1.784298   0.232815
 
      ************************************************************************************************************************
      *                                                                                                                      *
      *                                                    Final results                                                     *
      *                                                                                                                      *
      ************************************************************************************************************************
 
 
++    Wave function specifications:
      -----------------------------
 
      Number of closed shell electrons          20
      Number of electrons in active shells       4
      Max number of holes in RAS1 space          0
      Max nr of electrons in RAS3 space          0
      Number of inactive orbitals               10
      Number of active orbitals                  3
      Number of secondary orbitals              29
      Spin quantum number                      0.0
      State symmetry                             1
--
 
++    Orbital specifications:
      -----------------------
 
      Symmetry species                           1
                                                 a
      Frozen orbitals                            0
      Inactive orbitals                         10
      Active orbitals                            3
      RAS1 orbitals                              0
      RAS2 orbitals                              3
      RAS3 orbitals                              0
      Secondary orbitals                        29
      Deleted orbitals                           0
      Number of basis functions                 42
--
 
++    CI expansion specifications:
      ----------------------------
 
      Number of CSFs                             6
      Number of determinants                     6
      Number of root(s) required                 1
      CI root used                               1
      highest root included in the CI            1
      Root passed to geometry opt.               1
--
 
++    Final optimization conditions:
      ------------------------------
 
      Average CI energy                            -224.45119328
      RASSCF energy for state  1                   -224.45119328
      Super-CI energy                                -0.00000000
      RASSCF energy change                           -0.00000000
      Max change in MO coefficients              -0.614E-05
      Max non-diagonal density matrix element    -0.659E-05
      Maximum BLB matrix element                  0.294E-05
      (orbital pair  10,  18 in symmetry   1)
      Norm of electronic gradient            0.911E-05
--
 
 
      Final state energy(ies):
      ------------------------
 
::    RASSCF root number  1 Total energy:   -224.45119328
 
++    Molecular orbitals:
      -------------------
 
      Pseudonatural active orbitals and approximate occupation numbers
 
 
 
 
      Molecular orbitals for symmetry species 1: a  
 
 
      Orbital                1         2         3         4         5         6         7         8         9        10
      Energy          -20.7490  -20.7405  -20.7404   -1.6713   -1.4536   -1.0491   -0.8048   -0.7693   -0.6274   -0.4485
      Occ. No.          2.0000    2.0000    2.0000    2.0000    2.0000    2.0000    2.0000    2.0000    2.0000    2.0000
 
    1 O1     1s         0.0317   -0.7072    0.7065   -0.0153    0.0084    0.0149   -0.0009   -0.0190    0.0018    0.0002
    2 O1     2s         0.0003   -0.0008    0.0005    0.3486   -0.5909    0.6414   -0.0188   -0.3846    0.0236   -0.0039
    3 O1     3s         0.0001   -0.0001   -0.0001   -0.0252    0.0120    0.0188   -0.0013   -0.0250    0.0021    0.0036
    4 O1     2px        0.0000    0.0000   -0.0000   -0.0031    0.0056    0.0119    0.3980   -0.0553   -0.7033    0.6414
    5 O1     3px        0.0001    0.0000   -0.0000    0.0013   -0.0008   -0.0017   -0.0336    0.0030    0.0079    0.0473
    6 O1     2py       -0.0003    0.0009   -0.0010   -0.1032    0.0901    0.2004   -0.0299   -0.4487    0.0500    0.0306
    7 O1     3py       -0.0001   -0.0005    0.0003    0.0253   -0.0177   -0.0276    0.0020    0.0268    0.0001   -0.0036
    8 O1     2pz        0.0000    0.0000   -0.0000    0.0000   -0.0000   -0.0000   -0.0000   -0.0000    0.0000   -0.0000
    9 O1     3pz        0.0000    0.0000    0.0000    0.0000   -0.0000    0.0000   -0.0000   -0.0000    0.0000   -0.0000
   10 O1     3d2-       0.0000   -0.0000    0.0000    0.0004   -0.0013   -0.0010   -0.0231    0.0028    0.0132    0.0084
   11 O1     3d1-       0.0000   -0.0000    0.0000   -0.0000   -0.0000    0.0000    0.0000    0.0000   -0.0000   -0.0000
   12 O1     3d0        0.0000    0.0001   -0.0002   -0.0088    0.0087    0.0074   -0.0011   -0.0175    0.0015    0.0007
   13 O1     3d1+       0.0000   -0.0000    0.0000   -0.0000    0.0000   -0.0000    0.0000    0.0000    0.0000   -0.0000
   14 O1     3d2+      -0.0001   -0.0002    0.0001   -0.0167    0.0151    0.0162   -0.0031   -0.0327    0.0030    0.0022
   15 O2     1s         0.9989   -0.0000   -0.0450   -0.0219    0.0000   -0.0122   -0.0008    0.0000   -0.0000    0.0051
   16 O2     2s         0.0000   -0.0000   -0.0008    0.6455    0.0000   -0.6270   -0.0101    0.0000   -0.0000    0.0655
   17 O2     3s        -0.0012   -0.0000   -0.0006   -0.0291    0.0000   -0.0193   -0.0004    0.0000    0.0000    0.0099
   18 O2     2px        0.0001    0.0000    0.0000    0.0129   -0.0000    0.0162    0.6847   -0.0000   -0.0000   -0.8116
   19 O2     3px       -0.0003   -0.0000   -0.0000   -0.0026   -0.0000   -0.0021   -0.0511    0.0000    0.0000   -0.0648
   20 O2     2py        0.0000    0.0010   -0.0000   -0.0000   -0.2989   -0.0000    0.0000    0.5162   -0.0375   -0.0000
   21 O2     3py        0.0000    0.0013   -0.0000   -0.0000    0.0789   -0.0000   -0.0000   -0.0761    0.0004   -0.0000
   22 O2     2pz       -0.0000    0.0000   -0.0000   -0.0000    0.0000   -0.0000   -0.0000   -0.0000   -0.0000    0.0000
   23 O2     3pz       -0.0000   -0.0000   -0.0000   -0.0000    0.0000   -0.0000    0.0000    0.0000   -0.0000    0.0000
   24 O2     3d2-       0.0000    0.0000   -0.0000    0.0000   -0.0049   -0.0000    0.0000    0.0036   -0.0356    0.0000
   25 O2     3d1-      -0.0000   -0.0000    0.0000   -0.0000   -0.0000    0.0000    0.0000    0.0000    0.0000   -0.0000
   26 O2     3d0       -0.0002    0.0000    0.0003   -0.0177    0.0000    0.0019   -0.0027    0.0000    0.0000    0.0050
   27 O2     3d1+      -0.0000    0.0000   -0.0000    0.0000    0.0000   -0.0000    0.0000    0.0000    0.0000   -0.0000
   28 O2     3d2+       0.0002    0.0000    0.0004   -0.0332    0.0000    0.0006    0.0029    0.0000   -0.0000    0.0053
   29 O3     1s         0.0317    0.7072    0.7065   -0.0153   -0.0084    0.0149   -0.0009    0.0190   -0.0018    0.0002
   30 O3     2s         0.0003    0.0008    0.0005    0.3486    0.5909    0.6414   -0.0188    0.3846   -0.0236   -0.0039
   31 O3     3s         0.0001    0.0001   -0.0001   -0.0252   -0.0120    0.0188   -0.0013    0.0250   -0.0021    0.0036
   32 O3     2px        0.0000   -0.0000   -0.0000   -0.0031   -0.0056    0.0119    0.3980    0.0553    0.7033    0.6414
   33 O3     3px        0.0001   -0.0000   -0.0000    0.0013    0.0008   -0.0017   -0.0336   -0.0030   -0.0079    0.0473
   34 O3     2py        0.0003    0.0009    0.0010    0.1032    0.0901   -0.2004    0.0299   -0.4487    0.0500   -0.0306
   35 O3     3py        0.0001   -0.0005   -0.0003   -0.0253   -0.0177    0.0276   -0.0020    0.0268    0.0001    0.0036
   36 O3     2pz        0.0000   -0.0000    0.0000    0.0000   -0.0000   -0.0000   -0.0000   -0.0000   -0.0000    0.0000
   37 O3     3pz        0.0000    0.0000   -0.0000    0.0000   -0.0000   -0.0000    0.0000   -0.0000    0.0000   -0.0000
   38 O3     3d2-      -0.0000   -0.0000   -0.0000   -0.0004   -0.0013    0.0010    0.0231    0.0028    0.0132   -0.0084
   39 O3     3d1-       0.0000   -0.0000    0.0000    0.0000    0.0000    0.0000   -0.0000   -0.0000    0.0000   -0.0000
   40 O3     3d0        0.0000   -0.0001   -0.0002   -0.0088   -0.0087    0.0074   -0.0011    0.0175   -0.0015    0.0007
   41 O3     3d1+       0.0000   -0.0000    0.0000   -0.0000    0.0000    0.0000   -0.0000    0.0000   -0.0000    0.0000
   42 O3     3d2+      -0.0001    0.0002    0.0001   -0.0167   -0.0151    0.0162   -0.0031    0.0327   -0.0030    0.0022
 
 
      Orbital               11        12        13        14        15        16        17        18        19        20
      Energy            0.0000    0.0000    0.0000    0.1341    0.2867    0.4684    0.4785    0.5140    0.6633    0.6719
      Occ. No.          1.9829    1.7843    0.2328    0.0000    0.0000    0.0000    0.0000    0.0000    0.0000    0.0000
 
    1 O1     1s        -0.0000   -0.0000   -0.0000   -0.0261   -0.1655    0.0000   -0.0057    0.0360   -0.0368    0.0065
    2 O1     2s        -0.0000   -0.0000   -0.0000   -0.3344   -1.1936    0.0000   -0.0403    0.2688   -0.0980    0.0165
    3 O1     3s        -0.0000   -0.0000    0.0000   -0.0051   -0.4324   -0.0000   -0.0212    0.2177   -0.1208    0.0244
    4 O1     2px       -0.0000   -0.0000    0.0000   -0.0188    0.0346    0.0000   -0.0786   -0.0224   -0.0313   -0.0922
    5 O1     3px        0.0000    0.0000   -0.0000   -0.0062    0.0302    0.0000    0.4631    0.0290   -0.1435   -0.8124
    6 O1     2py        0.0000   -0.0000    0.0000    0.8020    0.5781    0.0000    0.0308   -0.2866   -0.4868    0.0932
    7 O1     3py        0.0000    0.0000    0.0000    0.1594    0.6628    0.0000    0.0623   -0.8360    0.0448   -0.0072
    8 O1     2pz        0.3402   -0.7036    0.6567   -0.0000    0.0000    0.0275    0.0000    0.0000   -0.0000   -0.0000
    9 O1     3pz       -0.0296   -0.0098   -0.0647   -0.0000    0.0000    0.4926   -0.0000    0.0000   -0.0000   -0.0000
   10 O1     3d2-      -0.0000    0.0000    0.0000   -0.0024   -0.0028    0.0000    0.0298   -0.0004   -0.0169   -0.0189
   11 O1     3d1-      -0.0300    0.0200    0.0096   -0.0000    0.0000    0.0363   -0.0000    0.0000    0.0000   -0.0000
   12 O1     3d0        0.0000   -0.0000    0.0000   -0.0002    0.0201   -0.0000    0.0017    0.0022    0.0671   -0.0128
   13 O1     3d1+      -0.0008    0.0003    0.0004    0.0000    0.0000    0.0017   -0.0000    0.0000    0.0000   -0.0000
   14 O1     3d2+       0.0000   -0.0000    0.0000   -0.0010    0.0340   -0.0000    0.0060   -0.0001    0.1138   -0.0218
   15 O2     1s         0.0000   -0.0000   -0.0000    0.1153    0.0000    0.0000    0.0189   -0.1836   -0.0000    0.0000
   16 O2     2s         0.0000   -0.0000    0.0000    1.1270    0.0000    0.0000    0.1160   -1.0986   -0.0000    0.0000
   17 O2     3s         0.0000   -0.0000    0.0000    0.2657   -0.0000    0.0000    0.0481   -0.3654   -0.0000    0.0000
   18 O2     2px        0.0000    0.0000   -0.0000    0.0978    0.0000   -0.0000   -0.1203   -0.0180    0.0000   -0.0000
   19 O2     3px       -0.0000   -0.0000   -0.0000    0.0210    0.0000    0.0000    0.4006    0.0006    0.0000    0.0000
   20 O2     2py       -0.0000    0.0000    0.0000   -0.0000    1.3219   -0.0000   -0.0000    0.0000   -0.4076    0.0756
   21 O2     3py        0.0000    0.0000   -0.0000   -0.0000    1.1327   -0.0000   -0.0000    0.0000    0.7628   -0.1418
   22 O2     2pz        0.7422    0.0000   -0.6988   -0.0000    0.0000   -0.2948    0.0000   -0.0000   -0.0000    0.0000
   23 O2     3pz       -0.0028    0.0000   -0.0728    0.0000    0.0000    0.3367   -0.0000    0.0000   -0.0000    0.0000
   24 O2     3d2-       0.0000    0.0000    0.0000   -0.0000    0.0070   -0.0000   -0.0000    0.0000    0.0210    0.0671
   25 O2     3d1-       0.0000   -0.0469    0.0000   -0.0000    0.0000   -0.0000   -0.0000   -0.0000    0.0000    0.0000
   26 O2     3d0        0.0000    0.0000    0.0000    0.0389   -0.0000   -0.0000   -0.0081    0.0990   -0.0000    0.0000
   27 O2     3d1+       0.0045    0.0000   -0.0031    0.0000    0.0000   -0.0036    0.0000    0.0000    0.0000   -0.0000
   28 O2     3d2+      -0.0000    0.0000   -0.0000    0.0702   -0.0000   -0.0000   -0.0198    0.1639   -0.0000    0.0000
   29 O3     1s         0.0000    0.0000    0.0000   -0.0261    0.1655   -0.0000   -0.0057    0.0360    0.0368   -0.0065
   30 O3     2s         0.0000    0.0000   -0.0000   -0.3344    1.1936   -0.0000   -0.0403    0.2688    0.0980   -0.0165
   31 O3     3s        -0.0000    0.0000   -0.0000   -0.0051    0.4324   -0.0000   -0.0212    0.2177    0.1208   -0.0244
   32 O3     2px        0.0000    0.0000    0.0000   -0.0188   -0.0346   -0.0000   -0.0786   -0.0224    0.0313    0.0922
   33 O3     3px       -0.0000    0.0000    0.0000   -0.0062   -0.0302    0.0000    0.4631    0.0290    0.1435    0.8124
   34 O3     2py       -0.0000    0.0000   -0.0000   -0.8020    0.5781   -0.0000   -0.0308    0.2866   -0.4868    0.0932
   35 O3     3py       -0.0000    0.0000   -0.0000   -0.1594    0.6628   -0.0000   -0.0623    0.8360    0.0448   -0.0072
   36 O3     2pz        0.3402    0.7036    0.6567    0.0000   -0.0000    0.0275    0.0000    0.0000    0.0000    0.0000
   37 O3     3pz       -0.0296    0.0098   -0.0647    0.0000    0.0000    0.4926   -0.0000    0.0000    0.0000    0.0000
   38 O3     3d2-       0.0000   -0.0000    0.0000    0.0024   -0.0028   -0.0000   -0.0298    0.0004   -0.0169   -0.0189
   39 O3     3d1-       0.0300    0.0200   -0.0096    0.0000   -0.0000   -0.0363    0.0000   -0.0000   -0.0000   -0.0000
   40 O3     3d0        0.0000    0.0000    0.0000   -0.0002   -0.0201   -0.0000    0.0017    0.0022   -0.0671    0.0128
   41 O3     3d1+      -0.0008   -0.0003    0.0004    0.0000    0.0000    0.0017    0.0000    0.0000    0.0000    0.0000
   42 O3     3d2+      -0.0000   -0.0000    0.0000   -0.0010   -0.0340    0.0000    0.0060   -0.0001   -0.1138    0.0218
 
 
      Orbital               21        22        23        24        25        26        27        28        29        30
      Energy            0.6832    0.8581    1.0278    1.0386    1.0821    1.6895    1.6980    1.7312    1.7313    1.9953
      Occ. No.          0.0000    0.0000    0.0000    0.0000    0.0000    0.0000    0.0000    0.0000    0.0000    0.0000
 
    1 O1     1s         0.0000   -0.0198   -0.0045   -0.0000    0.0967    0.0000   -0.0109   -0.0000   -0.0011   -0.2763
    2 O1     2s         0.0000   -0.1021   -0.0243   -0.0000    0.5719   -0.0000   -0.0844   -0.0000   -0.0105   -1.8943
    3 O1     3s        -0.0000    0.4524   -0.0118   -0.0000   -0.0810   -0.0000   -0.1417   -0.0000   -0.0160   -1.7337
    4 O1     2px       -0.0000   -0.0041   -0.4850    0.0000   -0.0341    0.0000    0.1677    0.0000    0.0104    0.0347
    5 O1     3px        0.0000   -0.0017   -0.9263   -0.0000   -0.0227   -0.0000   -0.0176    0.0000    0.0066    0.0502
    6 O1     2py        0.0000   -0.0481    0.0098    0.0000   -0.0839    0.0000    0.0211    0.0000    0.0094    0.6583
    7 O1     3py       -0.0000    0.3068    0.0048   -0.0000    0.6922    0.0000    0.0573    0.0000    0.0081    0.1904
    8 O1     2pz       -0.0844    0.0000   -0.0000    0.5142    0.0000   -0.1799    0.0000   -0.0095    0.0000    0.0000
    9 O1     3pz       -0.8251   -0.0000   -0.0000    0.9132    0.0000    0.0308   -0.0000   -0.0070    0.0000    0.0000
   10 O1     3d2-      -0.0000   -0.0080   -0.0462    0.0000   -0.0083    0.0000    0.4529    0.0000    0.0382   -0.0475
   11 O1     3d1-      -0.0264   -0.0000   -0.0000    0.0400    0.0000   -0.4547    0.0000   -0.0382    0.0000   -0.0000
   12 O1     3d0       -0.0000    0.0503    0.0070    0.0000   -0.0660   -0.0000   -0.0149    0.0000    0.3796   -0.0260
   13 O1     3d1+      -0.0002    0.0000   -0.0000    0.0049    0.0000   -0.0284    0.0000    0.4374   -0.0000    0.0000
   14 O1     3d2+      -0.0000    0.0792    0.0021    0.0000   -0.1074    0.0000    0.0337   -0.0000   -0.2172    0.0076
   15 O2     1s        -0.0000    0.0113   -0.0016   -0.0000    0.0000    0.0000    0.0000    0.0000    0.0044   -0.0000
   16 O2     2s        -0.0000    0.0487   -0.0040    0.0000    0.0000    0.0000    0.0000    0.0000    0.0275   -0.0000
   17 O2     3s        -0.0000    0.5654   -0.0055   -0.0000   -0.0000   -0.0000    0.0000    0.0000    0.0182   -0.0000
   18 O2     2px        0.0000    0.0022    0.6672    0.0000   -0.0000   -0.0000   -0.0000    0.0000    0.0086   -0.0000
   19 O2     3px        0.0000    0.0038    1.6423    0.0000   -0.0000   -0.0000   -0.0000   -0.0000   -0.0138   -0.0000
   20 O2     2py        0.0000    0.0000   -0.0000    0.0000   -0.8332    0.0000    0.0785    0.0000   -0.0000    2.0470
   21 O2     3py       -0.0000    0.0000   -0.0000    0.0000   -0.9795    0.0000    0.1012    0.0000   -0.0000    2.2142
   22 O2     2pz       -0.0000   -0.0000    0.0000   -0.6714   -0.0000    0.0000    0.0000   -0.0101    0.0000   -0.0000
   23 O2     3pz       -0.0000   -0.0000    0.0000   -1.6623   -0.0000    0.0000    0.0000    0.0156   -0.0000    0.0000
   24 O2     3d2-      -0.0000    0.0000    0.0000   -0.0000    0.0356   -0.0000   -0.5682    0.0000   -0.0000    0.0699
   25 O2     3d1-       0.0811    0.0000   -0.0000   -0.0000   -0.0000    0.5712   -0.0000    0.0000    0.0000    0.0000
   26 O2     3d0       -0.0000    0.0488    0.0108   -0.0000   -0.0000    0.0000   -0.0000    0.0000    0.5757   -0.0000
   27 O2     3d1+      -0.0000    0.0000   -0.0000    0.0079    0.0000   -0.0000    0.0000    0.6650   -0.0000   -0.0000
   28 O2     3d2+      -0.0000    0.0703    0.0041   -0.0000   -0.0000    0.0000    0.0000   -0.0000   -0.3329   -0.0000
   29 O3     1s         0.0000   -0.0198   -0.0045   -0.0000   -0.0967    0.0000    0.0109   -0.0000   -0.0011    0.2763
   30 O3     2s         0.0000   -0.1021   -0.0243    0.0000   -0.5719    0.0000    0.0844   -0.0000   -0.0105    1.8943
   31 O3     3s        -0.0000    0.4524   -0.0118   -0.0000    0.0810    0.0000    0.1417   -0.0000   -0.0160    1.7337
   32 O3     2px       -0.0000   -0.0041   -0.4850   -0.0000    0.0341   -0.0000   -0.1677    0.0000    0.0104   -0.0347
   33 O3     3px       -0.0000   -0.0017   -0.9263   -0.0000    0.0227    0.0000    0.0176    0.0000    0.0066   -0.0502
   34 O3     2py        0.0000    0.0481   -0.0098    0.0000   -0.0839    0.0000    0.0211   -0.0000   -0.0094    0.6583
   35 O3     3py        0.0000   -0.3068   -0.0048   -0.0000    0.6922    0.0000    0.0573   -0.0000   -0.0081    0.1904
   36 O3     2pz        0.0844    0.0000   -0.0000    0.5142    0.0000    0.1799   -0.0000   -0.0095    0.0000    0.0000
   37 O3     3pz        0.8251    0.0000   -0.0000    0.9132    0.0000   -0.0308    0.0000   -0.0070    0.0000   -0.0000
   38 O3     3d2-       0.0000    0.0080    0.0462    0.0000   -0.0083    0.0000    0.4529   -0.0000   -0.0382   -0.0475
   39 O3     3d1-      -0.0264   -0.0000    0.0000   -0.0400   -0.0000   -0.4547    0.0000    0.0382   -0.0000   -0.0000
   40 O3     3d0        0.0000    0.0503    0.0070   -0.0000    0.0660    0.0000    0.0149    0.0000    0.3796    0.0260
   41 O3     3d1+       0.0002    0.0000   -0.0000    0.0049    0.0000    0.0284    0.0000    0.4374   -0.0000   -0.0000
   42 O3     3d2+       0.0000    0.0792    0.0021   -0.0000    0.1074   -0.0000   -0.0337   -0.0000   -0.2172   -0.0076
 
 
      Orbital               31        32        33        34        35        36        37        38        39        40
      Energy            2.0304    2.0927    2.0929    2.5063    2.5064    2.6371    2.6521    2.6727    3.0051    3.6021
      Occ. No.          0.0000    0.0000    0.0000    0.0000    0.0000    0.0000    0.0000    0.0000    0.0000    0.0000
 
    1 O1     1s        -0.1141    0.0000   -0.0103   -0.0000    0.0030    0.0149    0.0000   -0.0091    0.0280   -0.0000
    2 O1     2s        -0.8645    0.0000   -0.0726    0.0000    0.0165   -0.0123    0.0000   -0.1466    0.3264   -0.0000
    3 O1     3s        -0.9547    0.0000   -0.0718    0.0000   -0.0002   -0.2471    0.0000   -0.2751    0.3928   -0.0000
    4 O1     2px        0.0155   -0.0000    0.0020    0.0000    0.0586    0.1888    0.0000   -0.2604   -0.0201   -0.0000
    5 O1     3px        0.0224    0.0000   -0.0028    0.0000    0.0995    0.2950    0.0000   -0.3791   -0.0129   -0.0000
    6 O1     2py        0.5877   -0.0000    0.0279   -0.0000   -0.0070    0.1056   -0.0000    0.1742   -0.4254    0.0000
    7 O1     3py        0.6063    0.0000    0.0126    0.0000    0.0050    0.2877   -0.0000    0.2716   -0.4118    0.0000
    8 O1     2pz       -0.0000    0.0006    0.0000   -0.0621    0.0000    0.0000   -0.3257   -0.0000    0.0000   -0.3342
    9 O1     3pz       -0.0000   -0.0048   -0.0000   -0.1014    0.0000    0.0000   -0.4779   -0.0000    0.0000   -0.2032
   10 O1     3d2-      -0.0312   -0.0000    0.0396   -0.0000   -0.1566   -0.4875   -0.0000    0.6294    0.0733    0.0000
   11 O1     3d1-      -0.0000    0.0408    0.0000    0.1616   -0.0000   -0.0000    0.7983    0.0000   -0.0000    0.6828
   12 O1     3d0       -0.0444   -0.0000    0.6135    0.0000    0.4939    0.1996   -0.0000    0.2729   -0.4085    0.0000
   13 O1     3d1+       0.0000   -0.7080   -0.0000    0.5654   -0.0000   -0.0000   -0.0888   -0.0000   -0.0000    0.0351
   14 O1     3d2+      -0.0640    0.0000   -0.3524   -0.0000   -0.2760    0.4743    0.0000    0.3562   -0.7051    0.0000
   15 O2     1s         0.2722    0.0000    0.0000    0.0000    0.0024    0.1520   -0.0000    0.1416   -0.0000   -0.0000
   16 O2     2s         1.9570    0.0000    0.0000    0.0000    0.0047    0.8160   -0.0000    0.8298   -0.0000    0.0000
   17 O2     3s         1.9694    0.0000    0.0000   -0.0000   -0.0178    0.0652   -0.0000    0.2623   -0.0000   -0.0000
   18 O2     2px        0.0166    0.0000   -0.0000   -0.0000   -0.1786   -0.4704   -0.0000    0.6953   -0.0000   -0.0000
   19 O2     3px        0.0255    0.0000    0.0000   -0.0000   -0.1628   -0.4854   -0.0000    0.6519   -0.0000    0.0000
   20 O2     2py        0.0000   -0.0000    0.0777   -0.0000    0.0000    0.0000   -0.0000    0.0000   -0.7466    0.0000
   21 O2     3py        0.0000   -0.0000    0.0823   -0.0000    0.0000    0.0000   -0.0000    0.0000    0.3046   -0.0000
   22 O2     2pz       -0.0000    0.0000    0.0000    0.1882   -0.0000   -0.0000    0.8456    0.0000   -0.0000    0.0000
   23 O2     3pz        0.0000    0.0000    0.0000    0.1650   -0.0000   -0.0000    0.8002    0.0000   -0.0000    0.0000
   24 O2     3d2-       0.0000    0.0000   -0.0020    0.0000    0.0000    0.0000    0.0000   -0.0000    0.0207    0.0000
   25 O2     3d1-       0.0000   -0.0038   -0.0000   -0.0000   -0.0000   -0.0000   -0.0000   -0.0000    0.0000    1.1076
   26 O2     3d0        0.0804    0.0000    0.0000   -0.0000   -0.6370    0.3159    0.0000   -0.0085   -0.0000   -0.0000
   27 O2     3d1+      -0.0000   -0.0000   -0.0000   -0.7453    0.0000   -0.0000    0.2169    0.0000    0.0000    0.0000
   28 O2     3d2+       0.1392    0.0000    0.0000    0.0000    0.3895    0.2633   -0.0000    0.3032   -0.0000    0.0000
   29 O3     1s        -0.1141   -0.0000    0.0103    0.0000    0.0030    0.0149    0.0000   -0.0091   -0.0280    0.0000
   30 O3     2s        -0.8645   -0.0000    0.0726    0.0000    0.0165   -0.0123    0.0000   -0.1466   -0.3264    0.0000
   31 O3     3s        -0.9547   -0.0000    0.0718   -0.0000   -0.0002   -0.2471    0.0000   -0.2751   -0.3928    0.0000
   32 O3     2px        0.0155    0.0000   -0.0020    0.0000    0.0586    0.1888    0.0000   -0.2604    0.0201    0.0000
   33 O3     3px        0.0224   -0.0000    0.0028    0.0000    0.0995    0.2950    0.0000   -0.3791    0.0129    0.0000
   34 O3     2py       -0.5877   -0.0000    0.0279    0.0000    0.0070   -0.1056    0.0000   -0.1742   -0.4254    0.0000
   35 O3     3py       -0.6063   -0.0000    0.0126   -0.0000   -0.0050   -0.2877    0.0000   -0.2716   -0.4118   -0.0000
   36 O3     2pz       -0.0000   -0.0006   -0.0000   -0.0621    0.0000    0.0000   -0.3257   -0.0000   -0.0000    0.3342
   37 O3     3pz       -0.0000    0.0048    0.0000   -0.1014    0.0000    0.0000   -0.4779   -0.0000    0.0000    0.2032
   38 O3     3d2-       0.0312   -0.0000    0.0396    0.0000    0.1566    0.4875    0.0000   -0.6294    0.0733    0.0000
   39 O3     3d1-      -0.0000    0.0408    0.0000   -0.1616    0.0000    0.0000   -0.7983   -0.0000    0.0000    0.6828
   40 O3     3d0       -0.0444    0.0000   -0.6135    0.0000    0.4939    0.1996   -0.0000    0.2729    0.4085    0.0000
   41 O3     3d1+      -0.0000    0.7080    0.0000    0.5654   -0.0000    0.0000   -0.0888   -0.0000   -0.0000   -0.0351
   42 O3     3d2+      -0.0640   -0.0000    0.3524   -0.0000   -0.2760    0.4743    0.0000    0.3562    0.7051   -0.0000
 
 
      Orbital               41        42
      Energy            3.6125    4.4810
      Occ. No.          0.0000    0.0000
 
    1 O1     1s        -0.0080    0.2420
    2 O1     2s        -0.0498    1.5964
    3 O1     3s        -0.0167    0.8040
    4 O1     2px       -0.3307   -0.0673
    5 O1     3px       -0.2045   -0.0307
    6 O1     2py        0.0489   -1.1894
    7 O1     3py        0.0119   -0.5015
    8 O1     2pz        0.0000    0.0000
    9 O1     3pz        0.0000   -0.0000
   10 O1     3d2-       0.6780    0.0837
   11 O1     3d1-      -0.0000    0.0000
   12 O1     3d0        0.0091   -0.3452
   13 O1     3d1+      -0.0000   -0.0000
   14 O1     3d2+       0.0856   -0.5937
   15 O2     1s        -0.0000   -0.4330
   16 O2     2s        -0.0000   -3.0600
   17 O2     3s        -0.0000   -1.9703
   18 O2     2px        0.0000   -0.0397
   19 O2     3px        0.0000   -0.0009
   20 O2     2py        0.0445   -0.0000
   21 O2     3py        0.0052   -0.0000
   22 O2     2pz       -0.0000    0.0000
   23 O2     3pz        0.0000   -0.0000
   24 O2     3d2-       1.1081   -0.0000
   25 O2     3d1-      -0.0000    0.0000
   26 O2     3d0        0.0000    0.7171
   27 O2     3d1+      -0.0000    0.0000
   28 O2     3d2+       0.0000    1.2427
   29 O3     1s         0.0080    0.2420
   30 O3     2s         0.0498    1.5964
   31 O3     3s         0.0167    0.8040
   32 O3     2px        0.3307   -0.0673
   33 O3     3px        0.2045   -0.0307
   34 O3     2py        0.0489    1.1894
   35 O3     3py        0.0119    0.5015
   36 O3     2pz       -0.0000   -0.0000
   37 O3     3pz       -0.0000    0.0000
   38 O3     3d2-       0.6780   -0.0837
   39 O3     3d1-      -0.0000   -0.0000
   40 O3     3d0       -0.0091   -0.3452
   41 O3     3d1+       0.0000   -0.0000
   42 O3     3d2+      -0.0856   -0.5937
--
 
      Von Neumann Entropy (Root  1) =  0.52036
 

      Mulliken population analysis for root number:  1
      -----------------------------------------------
 
 
++    Molecular charges:
      ------------------
 
      Mulliken charges per centre and basis function type
      ---------------------------------------------------
 
                O1      O2      O3    
      1s       2.0003  1.9999  2.0003
      2s       1.9350  1.6343  1.9350
      2px      2.0164  2.0058  2.0164
      2pz      1.2903  1.3772  1.2903
      2py      0.7799  0.9441  0.7799
      3s      -0.0151 -0.0258 -0.0151
      3px     -0.0234 -0.0580 -0.0234
      3pz     -0.0087 -0.0047 -0.0087
      3py     -0.0141  0.0149 -0.0141
      3d2+     0.0197  0.0165  0.0197
      3d1+     0.0000  0.0001  0.0000
      3d0      0.0057  0.0046  0.0057
      3d1-     0.0145  0.0352  0.0145
      3d2-     0.0130  0.0287  0.0130
      Total    8.0137  7.9726  8.0137
 
      N-E     -0.0137  0.0274 -0.0137
 
      Total electronic charge=   24.000000
 
      Total            charge=   -0.000000
--
 
 

      Expectation values of various properties for root number:  1
      -----------------------------------------------------------
 
 
++    Molecular properties:
      ---------------------
 
      Charge (e):
                      =   -0.0000
      Dipole Moment (Debye):
      Origin of the operator (Ang)=    0.0000    0.0000    0.0000
                   X=  6.8189E-02               Y=  3.2387E-11               Z=  3.5617E-15           Total=  6.8189E-02
      Quadrupole Moment (Debye*Ang):
      Origin of the operator (Ang)=    0.0316    0.0000    0.0000
                  XX= -1.6288E+01              XY=  9.4235E-12              XZ=  3.0380E-13              YY= -1.5765E+01
                  YZ=  1.3231E-13              ZZ= -1.4801E+01
      In traceless form (Debye*Ang)
                  XX= -1.0055E+00              XY=  1.4135E-11              XZ=  4.5570E-13              YY= -2.2070E-01
                  YZ=  1.9846E-13              ZZ=  1.2262E+00
--
 

      LoProp population analysis for root number:  1
      -----------------------------------------------
 
 
++    LoProp analysis:
      ----------------
 
 
 
  Input file to MOLDEN was generated!
 
 
++    Static properties:
      ------------------
 
 
      LoProp Charges per center
 

                   O1       O2       O3    
      Nuclear      8.0000   8.0000   8.0000
      Electronic  -8.0526  -7.8948  -8.0526
 
      Total       -0.0526   0.1052  -0.0526
--
 
 
      Natural Bond Order analysis for root number:  1
 
++    Natural Bond Order analysis
      ---------------------------
      Based on LoProp computed density
      -------------------------------------------------------------------------------------
      Atom A       Atom B       Bond Order | Atom A       Atom B       Bond Order
        O1           O2             1.969  |   O2           O3             1.969
      -------------------------------------------------------------------------------------
      NBO located     16.000 core electrons.
      NBO located      7.876 electrons involved in    2 bonds.
      The remaining    0.124 electrons are to be considered as diffuse
--
 
--
 
 
  Input file to MOLDEN was generated!
 
      Average orbitals are written to the RASORB file
      Natural orbitals for root   1 are written to the RASORB.1 file
      Spin density orbitals for root   1 are written to the SPDORB.1 file
 
forrtl: warning (525): IEEE_DIVIDE_BY_ZERO is signaling
forrtl: warning (526): IEEE_INVALID is signaling
forrtl: warning (528): IEEE_UNDERFLOW is signaling
--- Stop Module: rasscf at Fri Jan 24 18:28:45 2025 /rc=_RC_ALL_IS_WELL_ ---
*** files: ozone_175.75.LprOrb ozone_175.75.rasscf.molden ozone_175.75.LoProp.molden ozone_175.75.RasOrb ozone_175.75.RasOrb.1 ozone_175.75.rasscf.h5 ozone_175.75.SpdOrb.1 xmldump
    saved to directory /home/grierjones/DDCASPT2/ozone/ANO-RCC-VDZP/ozone_175.75

>>> COPY /tmp/ozone_175.75/ozone_175.75.rasscf.h5 /home/grierjones/DDCASPT2/ozone/ANO-RCC-VDZP/ozone_175.75/

>>> COPY /tmp/ozone_175.75/GMJ_Fock_MO.csv /home/grierjones/DDCASPT2/ozone/ANO-RCC-VDZP/ozone_175.75/ozone_175.75.GMJ_Fock_MO.csv

>>> COPY /tmp/ozone_175.75/GMJ_PT2_Fock_MO.csv /home/grierjones/DDCASPT2/ozone/ANO-RCC-VDZP/ozone_175.75/ozone_175.75.GMJ_PT2_Fock_MO.csv

*** symbolic link created: INPORB -> ozone_175.75.RasOrb
--- Start Module: motra at Fri Jan 24 18:28:45 2025 ---
 
()()()()()()()()()()()()()()()()()()()()()()()()()()()()()()()()()()()()()()()()()()()()()()()()()()

                                               &MOTRA

                                   only a single process is used
                       available to each process: 2.0 GB of memory, 1 thread?
()()()()()()()()()()()()()()()()()()()()()()()()()()()()()()()()()()()()()()()()()()()()()()()()()()
 
 
      *** WARNING: Default frozen orbitals is overwritten by user input.
      *** Default values:   3
 
      Header of the integral files:
      
       Integrals generated by seward 4.2.0  , Fri Jan 24 18:28:43 2025
 
 
      Header of MO coefficients source file:
      * RASSCF average (pseudo-natural) orbitals                                      
 
 
      Cartesian coordinates in Angstrom:
      -----------------------------------------------------
      No.  Label        X            Y            Z        
      -----------------------------------------------------
       1   O1         0.04738800   1.27712100   0.00000000
       2   O2         0.00000000   0.00000000   0.00000000
       3   O3         0.04738800  -1.27712100   0.00000000
      -----------------------------------------------------
      Nuclear repulsion energy =   66.25979296
 
      Orbital specifications:
      -----------------------
 
      Symmetry species:              1
      Number of basis functions:    42
      Frozen orbitals:               0
      Deleted orbitals:              0
      Number of orbitals used:      42

       SYMMETRY  BASIS FUNCTIONS       ORBITALS      INTEGRALS   CPU(SEC)  I/O(SEC)
 
        1 1 1 1   42  42  42  42    42  42  42  42      408156       0.00      0.00

       TOTAL CPU TIME(SEC)    0.36TOTAL I/O TIME(SEC)    0.75
 
--- Stop Module: motra at Fri Jan 24 18:28:46 2025 /rc=_RC_ALL_IS_WELL_ ---
*** files: xmldump
    saved to directory /home/grierjones/DDCASPT2/ozone/ANO-RCC-VDZP/ozone_175.75

>>> COPY /tmp/ozone_175.75/GMJ_one_int_indx.csv /home/grierjones/DDCASPT2/ozone/ANO-RCC-VDZP/ozone_175.75/ozone_175.75.GMJ_one_int_indx.csv

>>> COPY /tmp/ozone_175.75/GMJ_one_int.csv /home/grierjones/DDCASPT2/ozone/ANO-RCC-VDZP/ozone_175.75/ozone_175.75.GMJ_one_int.csv

>>> COPY /tmp/ozone_175.75/GMJ_two_int_indx.csv /home/grierjones/DDCASPT2/ozone/ANO-RCC-VDZP/ozone_175.75/ozone_175.75.GMJ_two_int_indx.csv

>>> COPY /tmp/ozone_175.75/GMJ_two_int.csv /home/grierjones/DDCASPT2/ozone/ANO-RCC-VDZP/ozone_175.75/ozone_175.75.GMJ_two_int.csv

*** symbolic link created: INPORB -> ozone_175.75.RasOrb
--- Start Module: caspt2 at Fri Jan 24 18:28:46 2025 ---
 
()()()()()()()()()()()()()()()()()()()()()()()()()()()()()()()()()()()()()()()()()()()()()()()()()()

                                              &CASPT2

                                   only a single process is used
                       available to each process: 2.0 GB of memory, 1 thread?
()()()()()()()()()()()()()()()()()()()()()()()()()()()()()()()()()()()()()()()()()()()()()()()()()()
 
 Cholesky algorithm in CASPT2 =    1
 
 ###############################################################################
 ###############################################################################
 ###                                                                         ###
 ###                                                                         ###
 ###    User changed nr of frozen orbitals.                                  ###
 ###                                                                         ###
 ###                                                                         ###
 ###############################################################################
 ###############################################################################
 
++    Wave function specifications:
      -----------------------------
 
      Number of closed shell electrons          20
      Number of electrons in active shells       4
      Max number of holes in RAS1 space          0
      Max number of electrons in RAS3 space      0
      Number of inactive orbitals               10
      Number of active orbitals                  3
      Number of secondary orbitals              29
      Spin quantum number                      0.0
      State symmetry                             1
      Number of CSFs                             6
      Number of root(s) available                1
      Root passed to geometry opt.               1
      A file JOBMIX will be created.
      This is a CASSCF or RASSCF reference function
--
 
++    Orbital specifications:
      -----------------------
 
      Symmetry species                           1
                                                 a
      Frozen orbitals                            0
      Inactive orbitals                         10
      Active orbitals                            3
      Secondary orbitals                        29
      Deleted orbitals                           0
      Number of basis functions                 42
--
 
      Type of Fock operator: STANDARD
      Type of 0-order Hamiltonian: STANDARD WITH DEFAULT IPEA
        "IP-EA" denominator shift =      0.25
      The input orbitals and the CI vector will be transformed.
 
--------------------------------------------------------------------------------
 Estimated memory requirements:
  POLY3 :                   250202
  RHS:                      279634
  SIGMA :                   302200
  PRPCTL:                        0
 Available workspace:    230396563
 
++ CASPT2 computation for group   1
 
********************************************************************************
 Multi-State initialization phase begins for group   1
--------------------------------------------------------------------------------
********************************************************************************
 Compute H0 matrices for state    1
--------------------------------------------------------------------------------
--------------------------------------------------------------------------------
 H0 matrices have been computed.
 
********************************************************************************
  CASPT2 EQUATION SOLUTION
--------------------------------------------------------------------------------
 
  Total nr of CASPT2 parameters:
   Before reduction:       86691
   After  reduction:       82880
 
 The contributions to the second order correlation energy in atomic units.
-----------------------------------------------------------------------------------------------------------------------------
  IT.      VJTU        VJTI        ATVX        AIVX        VJAI        BVAT        BJAT        BJAI        TOTAL       RNORM  
-----------------------------------------------------------------------------------------------------------------------------
   1    -0.000000   -0.001580   -0.015649   -0.100858   -0.016738   -0.017115   -0.120620   -0.256671   -0.529232    0.002157
   2    -0.000000   -0.001599   -0.015705   -0.101199   -0.016755   -0.017120   -0.120633   -0.256673   -0.529683    0.000174
   3    -0.000000   -0.001599   -0.015706   -0.101203   -0.016755   -0.017120   -0.120634   -0.256673   -0.529689    0.000025
   4    -0.000000   -0.001600   -0.015705   -0.101201   -0.016755   -0.017120   -0.120634   -0.256673   -0.529687    0.000003
-------------------------------------------------------------------------------------------------------------------
 
  FINAL CASPT2 RESULT:
 
  Correlation energy /Case, /Symm, and sums:
 VJTU     -0.00000000 -0.00000000
 VJTIP    -0.00159957 -0.00159957
 VJTIM     0.00000000  0.00000000
 ATVX     -0.01570528 -0.01570528
 AIVX     -0.10120113 -0.10120113
 VJAIP    -0.01164551 -0.01164551
 VJAIM    -0.00510919 -0.00510919
 BVATP    -0.01627483 -0.01627483
 BVATM    -0.00084497 -0.00084497
 BJATP    -0.04528415 -0.04528415
 BJATM    -0.07534940 -0.07534940
 BJAIP    -0.17275679 -0.17275679
 BJAIM    -0.08391599 -0.08391599
 Summed:  -0.52968682 -0.52968682
 
      Reference energy:        -224.4511932757
      E2 (Non-variational):      -0.5296868154
      E2 (Variational):          -0.5296868422
      Total energy:            -224.9808801179
      Residual norm:              0.0000002970
      Reference weight:           0.85805
 
      Contributions to the CASPT2 correlation energy
      Active & Virtual Only:         -0.0328250802
      One Inactive Excited:          -0.2218346868
      Two Inactive Excited:          -0.2750270484
 
 
++ Denominators, etc.
----------------------------------------------------------------------------------------------------
 Report on small energy denominators, large coefficients, and large energy contributions.
CASE  SYMM ACTIVE-MIX  NON-ACTIVE INDICES          DENOMINATOR     RHS VALUE       COEFFICIENT     CONTRIBUTION
ATVX     1  Mu1.0006  Se1.016                       1.90465503     -0.06901570      0.03693369     -0.00254900
ATVX     1  Mu1.0005  Se1.021                       1.87776280      0.11149680     -0.05819221     -0.00648825
ATVX     1  Mu1.0005  Se1.026                       2.88407309     -0.08062876      0.02804381     -0.00226114
AIVX     1  Mu1.0005  In1.004 Se1.014               2.60177612     -0.08715519      0.03349187     -0.00291899
AIVX     1  Mu1.0002  In1.005 Se1.014               1.98554376      0.05248115     -0.02584751     -0.00135651
AIVX     1  Mu1.0003  In1.005 Se1.014               2.08646951      0.06645767     -0.03135800     -0.00208398
AIVX     1  Mu1.0004  In1.006 Se1.014               1.82601659     -0.06703587      0.03707236     -0.00248518
AIVX     1  Mu1.0005  In1.006 Se1.014               1.97957129      0.06326061     -0.03244002     -0.00205218
AIVX     1  Mu1.0002  In1.008 Se1.014               1.30128159     -0.12365853      0.09422911     -0.01165223
AIVX     1  Mu1.0003  In1.008 Se1.014               1.40220734     -0.07113163      0.05034569     -0.00358117
AIVX     1  Mu1.0002  In1.009 Se1.017               1.50372637      0.06034414     -0.03898799     -0.00235270
AIVX     1  Mu1.0003  In1.009 Se1.017               1.60465212      0.04233403     -0.02559167     -0.00108340
AIVX     1  Mu1.0004  In1.010 Se1.017               1.56975644      0.06152415     -0.03904991     -0.00240251
AIVX     1  Mu1.0002  In1.008 Se1.018               1.68118998     -0.04804681      0.02779284     -0.00133536
AIVX     1  Mu1.0004  In1.008 Se1.019               2.07539825     -0.13041169      0.06315050     -0.00823556
AIVX     1  Mu1.0005  In1.008 Se1.019               2.22895296      0.08063215     -0.03629816     -0.00292680
AIVX     1  Mu1.0002  In1.010 Se1.020               1.51818178      0.06318503     -0.04044809     -0.00255571
AIVX     1  Mu1.0003  In1.010 Se1.020               1.61910753      0.04277798     -0.02558582     -0.00109451
AIVX     1  Mu1.0004  In1.006 Se1.022               2.54999838      0.07002633     -0.02740625     -0.00191916
AIVX     1  Mu1.0002  In1.008 Se1.022               2.02526338      0.05535226     -0.02686410     -0.00148699
BJATM    1  Mu1.0002  In1.008 Se1.019 Se1.016       2.61818346      0.06176628     -0.02595095     -0.00160289
BJATM    1  Mu1.0001  In1.009 Se1.021 Se1.020       2.38557414     -0.06445342      0.02701669     -0.00174132
BJATM    1  Mu1.0002  In1.010 Se1.023 Se1.016       2.66186310     -0.06597359      0.02564992     -0.00169222
BJAIP    1  Se1.014 In1.006 Se1.014 In1.006         2.36647879      0.06725486     -0.02841980     -0.00191137
BJAIP    1  Se1.014 In1.006 Se1.019 In1.008         2.61586046      0.10254924     -0.03920287     -0.00402022
BJAIP    1  Se1.014 In1.008 Se1.014 In1.008         1.80695601      0.09190708     -0.05086293     -0.00467466
BJAIP    1  Se1.019 In1.008 Se1.019 In1.008         2.86524212      0.11935836     -0.04165733     -0.00497215
BJAIP    1  Se1.017 In1.007 Se1.023 In1.010         2.75953315     -0.07552712      0.02736953     -0.00206714
BJAIP    1  Se1.017 In1.009 Se1.020 In1.010         2.22630098      0.06726498     -0.03021379     -0.00203233
BJAIP    1  Se1.014 In1.010 Se1.014 In1.010         1.16526625      0.03099985     -0.02660324     -0.00082470
BJAIM    1  Se1.014 In1.006 Se1.018 In1.008         2.61586046      0.07459347     -0.02851584     -0.00212710
BJAIM    1  Se1.014 In1.008 Se1.016 In1.009         2.00940079     -0.05722667      0.02847947     -0.00162979
BJAIM    1  Se1.017 In1.008 Se1.018 In1.010         2.35960031      0.06327968     -0.02681796     -0.00169703
BJAIM    1  Se1.014 In1.008 Se1.019 In1.010         2.02385620     -0.05497896      0.02716545     -0.00149353
BJAIM    1  Se1.014 In1.008 Se1.026 In1.010         3.05000335     -0.09207557      0.03018868     -0.00277964
--
 
   (Skipping property calculation,
    use PROP keyword to activate)
--
 
  Total CASPT2 energies:
::    CASPT2 Root  1     Total energy:   -224.98088012
 
  A NEW JOBIPH FILE NAMED 'JOBMIX' IS PREPARED.
********************************************************************************
forrtl: warning (528): IEEE_UNDERFLOW is signaling
--- Stop Module: caspt2 at Fri Jan 24 18:28:47 2025 /rc=_RC_ALL_IS_WELL_ ---
*** files: xmldump
    saved to directory /home/grierjones/DDCASPT2/ozone/ANO-RCC-VDZP/ozone_175.75

>>> EXPORT i = B

>>> EXPORT j = P

>>> IF (-FILE GMJ_e2_${i}_${j}.csv)

>>> COPY /tmp/ozone_175.75/GMJ_RHS_B_P.csv /home/grierjones/DDCASPT2/ozone/ANO-RCC-VDZP/ozone_175.75/GMJ_RHS_B_P.csv

>>> COPY /tmp/ozone_175.75/GMJ_IVECW_B_P.csv /home/grierjones/DDCASPT2/ozone/ANO-RCC-VDZP/ozone_175.75/GMJ_IVECW_B_P.csv

>>> COPY /tmp/ozone_175.75/GMJ_IVECX_B_P.csv /home/grierjones/DDCASPT2/ozone/ANO-RCC-VDZP/ozone_175.75/GMJ_IVECX_B_P.csv

>>> COPY /tmp/ozone_175.75/GMJ_IVECC2_B_P.csv /home/grierjones/DDCASPT2/ozone/ANO-RCC-VDZP/ozone_175.75/GMJ_IVECC2_B_P.csv

>>> COPY /tmp/ozone_175.75/GMJ_e2_B_P.csv /home/grierjones/DDCASPT2/ozone/ANO-RCC-VDZP/ozone_175.75/GMJ_e2_B_P.csv

>>> END FOREACH

>>> EXPORT j = M

>>> IF (-FILE GMJ_e2_${i}_${j}.csv)
(Skipped)

>>> END FOREACH

>>> END FOREACH

>>> EXPORT i = E

>>> EXPORT j = P

>>> IF (-FILE GMJ_e2_${i}_${j}.csv)

>>> COPY /tmp/ozone_175.75/GMJ_RHS_E_P.csv /home/grierjones/DDCASPT2/ozone/ANO-RCC-VDZP/ozone_175.75/GMJ_RHS_E_P.csv

>>> COPY /tmp/ozone_175.75/GMJ_IVECW_E_P.csv /home/grierjones/DDCASPT2/ozone/ANO-RCC-VDZP/ozone_175.75/GMJ_IVECW_E_P.csv

>>> COPY /tmp/ozone_175.75/GMJ_IVECX_E_P.csv /home/grierjones/DDCASPT2/ozone/ANO-RCC-VDZP/ozone_175.75/GMJ_IVECX_E_P.csv

>>> COPY /tmp/ozone_175.75/GMJ_IVECC2_E_P.csv /home/grierjones/DDCASPT2/ozone/ANO-RCC-VDZP/ozone_175.75/GMJ_IVECC2_E_P.csv

>>> COPY /tmp/ozone_175.75/GMJ_e2_E_P.csv /home/grierjones/DDCASPT2/ozone/ANO-RCC-VDZP/ozone_175.75/GMJ_e2_E_P.csv

>>> END FOREACH

>>> EXPORT j = M

>>> IF (-FILE GMJ_e2_${i}_${j}.csv)

>>> COPY /tmp/ozone_175.75/GMJ_RHS_E_M.csv /home/grierjones/DDCASPT2/ozone/ANO-RCC-VDZP/ozone_175.75/GMJ_RHS_E_M.csv

>>> COPY /tmp/ozone_175.75/GMJ_IVECW_E_M.csv /home/grierjones/DDCASPT2/ozone/ANO-RCC-VDZP/ozone_175.75/GMJ_IVECW_E_M.csv

>>> COPY /tmp/ozone_175.75/GMJ_IVECX_E_M.csv /home/grierjones/DDCASPT2/ozone/ANO-RCC-VDZP/ozone_175.75/GMJ_IVECX_E_M.csv

>>> COPY /tmp/ozone_175.75/GMJ_IVECC2_E_M.csv /home/grierjones/DDCASPT2/ozone/ANO-RCC-VDZP/ozone_175.75/GMJ_IVECC2_E_M.csv

>>> COPY /tmp/ozone_175.75/GMJ_e2_E_M.csv /home/grierjones/DDCASPT2/ozone/ANO-RCC-VDZP/ozone_175.75/GMJ_e2_E_M.csv

>>> END FOREACH

>>> END FOREACH

>>> EXPORT i = F

>>> EXPORT j = P

>>> IF (-FILE GMJ_e2_${i}_${j}.csv)

>>> COPY /tmp/ozone_175.75/GMJ_RHS_F_P.csv /home/grierjones/DDCASPT2/ozone/ANO-RCC-VDZP/ozone_175.75/GMJ_RHS_F_P.csv

>>> COPY /tmp/ozone_175.75/GMJ_IVECW_F_P.csv /home/grierjones/DDCASPT2/ozone/ANO-RCC-VDZP/ozone_175.75/GMJ_IVECW_F_P.csv

>>> COPY /tmp/ozone_175.75/GMJ_IVECX_F_P.csv /home/grierjones/DDCASPT2/ozone/ANO-RCC-VDZP/ozone_175.75/GMJ_IVECX_F_P.csv

>>> COPY /tmp/ozone_175.75/GMJ_IVECC2_F_P.csv /home/grierjones/DDCASPT2/ozone/ANO-RCC-VDZP/ozone_175.75/GMJ_IVECC2_F_P.csv

>>> COPY /tmp/ozone_175.75/GMJ_e2_F_P.csv /home/grierjones/DDCASPT2/ozone/ANO-RCC-VDZP/ozone_175.75/GMJ_e2_F_P.csv

>>> END FOREACH

>>> EXPORT j = M

>>> IF (-FILE GMJ_e2_${i}_${j}.csv)

>>> COPY /tmp/ozone_175.75/GMJ_RHS_F_M.csv /home/grierjones/DDCASPT2/ozone/ANO-RCC-VDZP/ozone_175.75/GMJ_RHS_F_M.csv

>>> COPY /tmp/ozone_175.75/GMJ_IVECW_F_M.csv /home/grierjones/DDCASPT2/ozone/ANO-RCC-VDZP/ozone_175.75/GMJ_IVECW_F_M.csv

>>> COPY /tmp/ozone_175.75/GMJ_IVECX_F_M.csv /home/grierjones/DDCASPT2/ozone/ANO-RCC-VDZP/ozone_175.75/GMJ_IVECX_F_M.csv

>>> COPY /tmp/ozone_175.75/GMJ_IVECC2_F_M.csv /home/grierjones/DDCASPT2/ozone/ANO-RCC-VDZP/ozone_175.75/GMJ_IVECC2_F_M.csv

>>> COPY /tmp/ozone_175.75/GMJ_e2_F_M.csv /home/grierjones/DDCASPT2/ozone/ANO-RCC-VDZP/ozone_175.75/GMJ_e2_F_M.csv

>>> END FOREACH

>>> END FOREACH

>>> EXPORT i = G

>>> EXPORT j = P

>>> IF (-FILE GMJ_e2_${i}_${j}.csv)

>>> COPY /tmp/ozone_175.75/GMJ_RHS_G_P.csv /home/grierjones/DDCASPT2/ozone/ANO-RCC-VDZP/ozone_175.75/GMJ_RHS_G_P.csv

>>> COPY /tmp/ozone_175.75/GMJ_IVECW_G_P.csv /home/grierjones/DDCASPT2/ozone/ANO-RCC-VDZP/ozone_175.75/GMJ_IVECW_G_P.csv

>>> COPY /tmp/ozone_175.75/GMJ_IVECX_G_P.csv /home/grierjones/DDCASPT2/ozone/ANO-RCC-VDZP/ozone_175.75/GMJ_IVECX_G_P.csv

>>> COPY /tmp/ozone_175.75/GMJ_IVECC2_G_P.csv /home/grierjones/DDCASPT2/ozone/ANO-RCC-VDZP/ozone_175.75/GMJ_IVECC2_G_P.csv

>>> COPY /tmp/ozone_175.75/GMJ_e2_G_P.csv /home/grierjones/DDCASPT2/ozone/ANO-RCC-VDZP/ozone_175.75/GMJ_e2_G_P.csv

>>> END FOREACH

>>> EXPORT j = M

>>> IF (-FILE GMJ_e2_${i}_${j}.csv)

>>> COPY /tmp/ozone_175.75/GMJ_RHS_G_M.csv /home/grierjones/DDCASPT2/ozone/ANO-RCC-VDZP/ozone_175.75/GMJ_RHS_G_M.csv

>>> COPY /tmp/ozone_175.75/GMJ_IVECW_G_M.csv /home/grierjones/DDCASPT2/ozone/ANO-RCC-VDZP/ozone_175.75/GMJ_IVECW_G_M.csv

>>> COPY /tmp/ozone_175.75/GMJ_IVECX_G_M.csv /home/grierjones/DDCASPT2/ozone/ANO-RCC-VDZP/ozone_175.75/GMJ_IVECX_G_M.csv

>>> COPY /tmp/ozone_175.75/GMJ_IVECC2_G_M.csv /home/grierjones/DDCASPT2/ozone/ANO-RCC-VDZP/ozone_175.75/GMJ_IVECC2_G_M.csv

>>> COPY /tmp/ozone_175.75/GMJ_e2_G_M.csv /home/grierjones/DDCASPT2/ozone/ANO-RCC-VDZP/ozone_175.75/GMJ_e2_G_M.csv

>>> END FOREACH

>>> END FOREACH

>>> EXPORT i = H

>>> EXPORT j = P

>>> IF (-FILE GMJ_e2_${i}_${j}.csv)

>>> COPY /tmp/ozone_175.75/GMJ_RHS_H_P.csv /home/grierjones/DDCASPT2/ozone/ANO-RCC-VDZP/ozone_175.75/GMJ_RHS_H_P.csv

>>> COPY /tmp/ozone_175.75/GMJ_IVECW_H_P.csv /home/grierjones/DDCASPT2/ozone/ANO-RCC-VDZP/ozone_175.75/GMJ_IVECW_H_P.csv

>>> COPY /tmp/ozone_175.75/GMJ_IVECX_H_P.csv /home/grierjones/DDCASPT2/ozone/ANO-RCC-VDZP/ozone_175.75/GMJ_IVECX_H_P.csv

>>> COPY /tmp/ozone_175.75/GMJ_IVECC2_H_P.csv /home/grierjones/DDCASPT2/ozone/ANO-RCC-VDZP/ozone_175.75/GMJ_IVECC2_H_P.csv

>>> COPY /tmp/ozone_175.75/GMJ_e2_H_P.csv /home/grierjones/DDCASPT2/ozone/ANO-RCC-VDZP/ozone_175.75/GMJ_e2_H_P.csv

>>> END FOREACH

>>> EXPORT j = M

>>> IF (-FILE GMJ_e2_${i}_${j}.csv)

>>> COPY /tmp/ozone_175.75/GMJ_RHS_H_M.csv /home/grierjones/DDCASPT2/ozone/ANO-RCC-VDZP/ozone_175.75/GMJ_RHS_H_M.csv

>>> COPY /tmp/ozone_175.75/GMJ_IVECW_H_M.csv /home/grierjones/DDCASPT2/ozone/ANO-RCC-VDZP/ozone_175.75/GMJ_IVECW_H_M.csv

>>> COPY /tmp/ozone_175.75/GMJ_IVECX_H_M.csv /home/grierjones/DDCASPT2/ozone/ANO-RCC-VDZP/ozone_175.75/GMJ_IVECX_H_M.csv

>>> COPY /tmp/ozone_175.75/GMJ_IVECC2_H_M.csv /home/grierjones/DDCASPT2/ozone/ANO-RCC-VDZP/ozone_175.75/GMJ_IVECC2_H_M.csv

>>> COPY /tmp/ozone_175.75/GMJ_e2_H_M.csv /home/grierjones/DDCASPT2/ozone/ANO-RCC-VDZP/ozone_175.75/GMJ_e2_H_M.csv

>>> END FOREACH

>>> END FOREACH

>>> EXPORT i = A

>>> IF (-FILE GMJ_e2_$i.csv)

>>> COPY /tmp/ozone_175.75/GMJ_RHS_A.csv /home/grierjones/DDCASPT2/ozone/ANO-RCC-VDZP/ozone_175.75/GMJ_RHS_A.csv

>>> COPY /tmp/ozone_175.75/GMJ_IVECW_A.csv /home/grierjones/DDCASPT2/ozone/ANO-RCC-VDZP/ozone_175.75/GMJ_IVECW_A.csv

>>> COPY /tmp/ozone_175.75/GMJ_IVECX_A.csv /home/grierjones/DDCASPT2/ozone/ANO-RCC-VDZP/ozone_175.75/GMJ_IVECX_A.csv

>>> COPY /tmp/ozone_175.75/GMJ_IVECC2_A.csv /home/grierjones/DDCASPT2/ozone/ANO-RCC-VDZP/ozone_175.75/GMJ_IVECC2_A.csv

>>> COPY /tmp/ozone_175.75/GMJ_e2_A.csv /home/grierjones/DDCASPT2/ozone/ANO-RCC-VDZP/ozone_175.75/GMJ_e2_A.csv

>>> END FOREACH

>>> EXPORT i = C

>>> IF (-FILE GMJ_e2_$i.csv)

>>> COPY /tmp/ozone_175.75/GMJ_RHS_C.csv /home/grierjones/DDCASPT2/ozone/ANO-RCC-VDZP/ozone_175.75/GMJ_RHS_C.csv

>>> COPY /tmp/ozone_175.75/GMJ_IVECW_C.csv /home/grierjones/DDCASPT2/ozone/ANO-RCC-VDZP/ozone_175.75/GMJ_IVECW_C.csv

>>> COPY /tmp/ozone_175.75/GMJ_IVECX_C.csv /home/grierjones/DDCASPT2/ozone/ANO-RCC-VDZP/ozone_175.75/GMJ_IVECX_C.csv

>>> COPY /tmp/ozone_175.75/GMJ_IVECC2_C.csv /home/grierjones/DDCASPT2/ozone/ANO-RCC-VDZP/ozone_175.75/GMJ_IVECC2_C.csv

>>> COPY /tmp/ozone_175.75/GMJ_e2_C.csv /home/grierjones/DDCASPT2/ozone/ANO-RCC-VDZP/ozone_175.75/GMJ_e2_C.csv

>>> END FOREACH

>>> EXPORT i = D

>>> IF (-FILE GMJ_e2_$i.csv)

>>> COPY /tmp/ozone_175.75/GMJ_RHS_D.csv /home/grierjones/DDCASPT2/ozone/ANO-RCC-VDZP/ozone_175.75/GMJ_RHS_D.csv

>>> COPY /tmp/ozone_175.75/GMJ_IVECW_D.csv /home/grierjones/DDCASPT2/ozone/ANO-RCC-VDZP/ozone_175.75/GMJ_IVECW_D.csv

>>> COPY /tmp/ozone_175.75/GMJ_IVECX_D.csv /home/grierjones/DDCASPT2/ozone/ANO-RCC-VDZP/ozone_175.75/GMJ_IVECX_D.csv

>>> COPY /tmp/ozone_175.75/GMJ_IVECC2_D.csv /home/grierjones/DDCASPT2/ozone/ANO-RCC-VDZP/ozone_175.75/GMJ_IVECC2_D.csv

>>> COPY /tmp/ozone_175.75/GMJ_e2_D.csv /home/grierjones/DDCASPT2/ozone/ANO-RCC-VDZP/ozone_175.75/GMJ_e2_D.csv

>>> END FOREACH

.########################.
.# Non-zero return code #.
.########################.

    Timing: Wall=3.61 User=2.66 System=0.94
********************************************
*** WorkDir at /tmp/ozone_175.75 cleaned ***
********************************************
