[Molden Format]
[N_Atoms]
                     2
[Atoms] (AU)
BE1         1      4           0.00000000      0.00000000      0.00000000
BE2         2      4           0.00000000      0.00000000      3.96842486
[Charge] (Mulliken)
  1.466826660134757E-012
 -1.477928890381008E-012
[GTO] (AU)
   1
   s  14
  2.262859900E+04  8.443999941E-05
  3.372318100E+03  4.601499968E-04
  7.603504000E+02  2.285389984E-03
  2.117404800E+02  9.648129932E-03
  6.722346800E+01  3.494469975E-02
  2.337217700E+01  1.061099893E-01
  8.721373000E+00  2.458240383E-01
  3.468091000E+00  3.862428773E-01
  1.452144000E+00  3.105526078E-01
  6.086150000E-01  6.415933955E-02
  2.576860000E-01 -2.265049984E-03
  1.041760000E-01 -5.217499963E-04
  4.242700000E-02 -8.757499938E-04
  1.484900000E-02  1.242199991E-04
   s  14
  2.262859900E+04 -1.586999994E-05
  3.372318100E+03 -8.656999968E-05
  7.603504000E+02 -4.302199984E-04
  2.117404800E+02 -1.825079993E-03
  6.722346800E+01 -6.682749976E-03
  2.337217700E+01 -2.095119992E-02
  8.721373000E+00 -5.200308981E-02
  3.468091000E+00 -9.849176964E-02
  1.452144000E+00 -1.355800695E-01
  6.086150000E-01 -6.429875976E-02
  2.576860000E-01  3.125414989E-01
  1.041760000E-01  6.270468577E-01
  4.242700000E-02  2.110231492E-01
  1.484900000E-02 -4.104669985E-03
   p   9
  3.371018400E+01  1.069960000E-03
  8.057649500E+00  6.828550001E-03
  2.836471400E+00  2.119065000E-02
  1.099965700E+00  5.843696001E-02
  4.433964000E-01  2.020920800E-01
  1.822264000E-01  4.582953101E-01
  7.572410000E-02  3.691239601E-01
  3.168540000E-02  6.611471001E-02
  1.108990000E-02  1.405160000E-03
 
   2
   s  14
  2.262859900E+04  8.443999941E-05
  3.372318100E+03  4.601499968E-04
  7.603504000E+02  2.285389984E-03
  2.117404800E+02  9.648129932E-03
  6.722346800E+01  3.494469975E-02
  2.337217700E+01  1.061099893E-01
  8.721373000E+00  2.458240383E-01
  3.468091000E+00  3.862428773E-01
  1.452144000E+00  3.105526078E-01
  6.086150000E-01  6.415933955E-02
  2.576860000E-01 -2.265049984E-03
  1.041760000E-01 -5.217499963E-04
  4.242700000E-02 -8.757499938E-04
  1.484900000E-02  1.242199991E-04
   s  14
  2.262859900E+04 -1.586999994E-05
  3.372318100E+03 -8.656999968E-05
  7.603504000E+02 -4.302199984E-04
  2.117404800E+02 -1.825079993E-03
  6.722346800E+01 -6.682749976E-03
  2.337217700E+01 -2.095119992E-02
  8.721373000E+00 -5.200308981E-02
  3.468091000E+00 -9.849176964E-02
  1.452144000E+00 -1.355800695E-01
  6.086150000E-01 -6.429875976E-02
  2.576860000E-01  3.125414989E-01
  1.041760000E-01  6.270468577E-01
  4.242700000E-02  2.110231492E-01
  1.484900000E-02 -4.104669985E-03
   p   9
  3.371018400E+01  1.069960000E-03
  8.057649500E+00  6.828550001E-03
  2.836471400E+00  2.119065000E-02
  1.099965700E+00  5.843696001E-02
  4.433964000E-01  2.020920800E-01
  1.822264000E-01  4.582953101E-01
  7.572410000E-02  3.691239601E-01
  3.168540000E-02  6.611471001E-02
  1.108990000E-02  1.405160000E-03
 
[MO]
Sym=     1a  
Ene=    -4.7192
Spin= Alpha
Occup=    1.00000
   1         0.70698739
   2         0.00185180
   3         0.00000000
   4         0.00000000
   5         0.00071480
   6         0.70698741
   7         0.00185180
   8         0.00000000
   9        -0.00000000
  10        -0.00071480
Sym=     1a  
Ene=    -4.7192
Spin= Beta
Occup=    1.00000
   1         0.70698739
   2         0.00185180
   3         0.00000000
   4         0.00000000
   5         0.00071480
   6         0.70698741
   7         0.00185180
   8         0.00000000
   9        -0.00000000
  10        -0.00071480
Sym=     2a  
Ene=    -4.7190
Spin= Alpha
Occup=    1.00000
   1        -0.70727280
   2        -0.00227287
   3         0.00000000
   4         0.00000000
   5        -0.00103467
   6         0.70727278
   7         0.00227287
   8         0.00000000
   9        -0.00000000
  10        -0.00103467
Sym=     2a  
Ene=    -4.7190
Spin= Beta
Occup=    1.00000
   1        -0.70727280
   2        -0.00227287
   3         0.00000000
   4         0.00000000
   5        -0.00103467
   6         0.70727278
   7         0.00227287
   8         0.00000000
   9        -0.00000000
  10        -0.00103467
Sym=     3a  
Ene=    -0.4183
Spin= Alpha
Occup=    1.00000
   1        -0.04409957
   2         0.52394569
   3        -0.00000000
   4        -0.00000000
   5         0.14913885
   6        -0.04409957
   7         0.52394569
   8         0.00000000
   9        -0.00000000
  10        -0.14913885
Sym=     3a  
Ene=    -0.4183
Spin= Beta
Occup=    1.00000
   1        -0.04409957
   2         0.52394569
   3        -0.00000000
   4        -0.00000000
   5         0.14913885
   6        -0.04409957
   7         0.52394569
   8         0.00000000
   9        -0.00000000
  10        -0.14913885
Sym=     4a  
Ene=    -0.2208
Spin= Alpha
Occup=    1.00000
   1        -0.01849996
   2        -0.76177934
   3         0.00000000
   4        -0.00000000
   5         0.21106078
   6         0.01849996
   7         0.76177934
   8        -0.00000000
   9        -0.00000000
  10         0.21106078
Sym=     4a  
Ene=    -0.2208
Spin= Beta
Occup=    1.00000
   1        -0.01849996
   2        -0.76177934
   3         0.00000000
   4        -0.00000000
   5         0.21106078
   6         0.01849996
   7         0.76177934
   8        -0.00000000
   9        -0.00000000
  10         0.21106078
Sym=     5a  
Ene=     0.0380
Spin= Alpha
Occup=    0.00000
   1         0.00000000
   2         0.00000000
   3         0.14748821
   4         0.59285174
   5        -0.00000000
   6         0.00000000
   7         0.00000000
   8         0.14748821
   9         0.59285174
  10         0.00000000
Sym=     5a  
Ene=     0.0380
Spin= Beta
Occup=    0.00000
   1         0.00000000
   2         0.00000000
   3         0.14748821
   4         0.59285174
   5        -0.00000000
   6         0.00000000
   7         0.00000000
   8         0.14748821
   9         0.59285174
  10         0.00000000
Sym=     6a  
Ene=     0.0380
Spin= Alpha
Occup=    0.00000
   1        -0.00000000
   2        -0.00000000
   3         0.59285174
   4        -0.14748821
   5         0.00000000
   6        -0.00000000
   7        -0.00000000
   8         0.59285174
   9        -0.14748821
  10        -0.00000000
Sym=     6a  
Ene=     0.0380
Spin= Beta
Occup=    0.00000
   1        -0.00000000
   2        -0.00000000
   3         0.59285174
   4        -0.14748821
   5         0.00000000
   6        -0.00000000
   7        -0.00000000
   8         0.59285174
   9        -0.14748821
  10        -0.00000000
Sym=     7a  
Ene=     0.0436
Spin= Alpha
Occup=    0.00000
   1         0.04484233
   2         0.34078292
   3        -0.00000000
   4        -0.00000000
   5        -0.65235232
   6         0.04484233
   7         0.34078292
   8        -0.00000000
   9        -0.00000000
  10         0.65235232
Sym=     7a  
Ene=     0.0436
Spin= Beta
Occup=    0.00000
   1         0.04484233
   2         0.34078292
   3        -0.00000000
   4        -0.00000000
   5        -0.65235232
   6         0.04484233
   7         0.34078292
   8        -0.00000000
   9        -0.00000000
  10         0.65235232
Sym=     8a  
Ene=     0.1806
Spin= Alpha
Occup=    0.00000
   1         0.00000000
   2         0.00000000
   3         0.07866270
   4        -0.86660862
   5        -0.00000000
   6        -0.00000000
   7        -0.00000000
   8        -0.07866270
   9         0.86660862
  10         0.00000000
Sym=     8a  
Ene=     0.1806
Spin= Beta
Occup=    0.00000
   1         0.00000000
   2         0.00000000
   3         0.07866270
   4        -0.86660862
   5        -0.00000000
   6        -0.00000000
   7        -0.00000000
   8        -0.07866270
   9         0.86660862
  10         0.00000000
Sym=     9a  
Ene=     0.1806
Spin= Alpha
Occup=    0.00000
   1         0.00000000
   2         0.00000000
   3        -0.86660862
   4        -0.07866270
   5         0.00000000
   6        -0.00000000
   7        -0.00000000
   8         0.86660862
   9         0.07866270
  10         0.00000000
Sym=     9a  
Ene=     0.1806
Spin= Beta
Occup=    0.00000
   1         0.00000000
   2         0.00000000
   3        -0.86660862
   4        -0.07866270
   5         0.00000000
   6        -0.00000000
   7        -0.00000000
   8         0.86660862
   9         0.07866270
  10         0.00000000
Sym=    10a  
Ene=     0.4321
Spin= Alpha
Occup=    0.00000
   1         0.18926635
   2         1.28908314
   3         0.00000000
   4         0.00000000
   5         1.28698513
   6        -0.18926635
   7        -1.28908314
   8        -0.00000000
   9        -0.00000000
  10         1.28698513
Sym=    10a  
Ene=     0.4321
Spin= Beta
Occup=    0.00000
   1         0.18926635
   2         1.28908314
   3         0.00000000
   4         0.00000000
   5         1.28698513
   6        -0.18926635
   7        -1.28908314
   8        -0.00000000
   9        -0.00000000
  10         1.28698513
