[Molden Format]
[N_Atoms]
                     2
[Atoms] (AU)
B1          1      5           0.00000000      0.00000000      0.00000000
O2          2      8           0.00000000      0.00000000      1.13383567
[Charge] (Mulliken)
   1.14510787023093     
  -1.14510787023096     
[GTO] (AU)
   1
   s  14
  3.336021700E+04  1.039699991E-04
  4.972095200E+03  5.254399956E-04
  1.125641700E+03  2.509059979E-03
  3.164913600E+02  1.031887991E-02
  1.020072600E+02  3.636632969E-02
  3.629587300E+01  1.064607991E-01
  1.397141000E+01  2.403999880E-01
  5.741156000E+00  3.748581168E-01
  2.494268000E+00  3.100066974E-01
  1.114202000E+00  7.922455933E-02
  4.215490000E-01 -4.947589958E-03
  1.696330000E-01 -7.737119935E-03
  6.853500000E-02 -1.501079987E-03
  2.398700000E-02 -1.333299989E-04
   s  14
  3.336021700E+04 -2.030000008E-05
  4.972095200E+03 -1.025700004E-04
  1.125641700E+03 -4.911300020E-04
  3.164913600E+02 -2.026570008E-03
  1.020072600E+02 -7.261010030E-03
  3.629587300E+01 -2.197722009E-02
  1.397141000E+01 -5.408428022E-02
  5.741156000E+00 -1.022402604E-01
  2.494268000E+00 -1.423595206E-01
  1.114202000E+00 -4.658690019E-02
  4.215490000E-01  3.799402916E-01
  1.696330000E-01  5.890463624E-01
  6.853500000E-02  1.749075107E-01
  2.398700000E-02 -1.142030005E-03
   p   9
  5.500000000E+01  1.229800005E-03
  1.336610100E+01  8.827380035E-03
  4.135394000E+00  3.843340015E-02
  1.481256000E+00  1.150031805E-01
  6.021360000E-01  2.733674011E-01
  2.556360000E-01  4.061972116E-01
  1.111510000E-01  3.014967912E-01
  4.764800000E-02  7.684809030E-02
  1.667700000E-02 -8.170000032E-06
 
   2
   s  14
  1.053749500E+05  1.238600013E-04
  1.567924000E+04  5.120100053E-04
  3.534544700E+03  2.152910022E-03
  9.873651600E+02  8.528440089E-03
  3.159787500E+02  3.018049031E-02
  1.116542800E+02  9.099702095E-02
  4.269945100E+01  2.177936423E-01
  1.739559600E+01  3.686245738E-01
  7.438309000E+00  3.366707335E-01
  3.222862000E+00  9.657630101E-02
  1.253877000E+00  2.144520022E-03
  4.951550000E-01  1.194350012E-03
  1.916650000E-01  5.390200056E-04
  6.708300000E-02  2.103400022E-04
   s  14
  1.053749500E+05 -2.815000008E-05
  1.567924000E+04 -1.163000003E-04
  3.534544700E+03 -4.909200013E-04
  9.873651600E+02 -1.946160005E-03
  3.159787500E+02 -7.005300019E-03
  1.116542800E+02 -2.167814006E-02
  4.269945100E+01 -5.641213015E-02
  1.739559600E+01 -1.127053003E-01
  7.438309000E+00 -1.589119704E-01
  3.222862000E+00 -3.355083009E-02
  1.253877000E+00  3.531902810E-01
  4.951550000E-01  5.534199315E-01
  1.916650000E-01  2.301839106E-01
  6.708300000E-02  1.127267003E-02
   p   9
  2.000000000E+02  9.173000030E-04
  4.653336700E+01  7.377140024E-03
  1.462180900E+01  3.483515011E-02
  5.313064000E+00  1.144397004E-01
  2.102525000E+00  2.554966408E-01
  8.502230000E-01  3.722557412E-01
  3.375970000E-01  3.323314911E-01
  1.288920000E-01  1.400847905E-01
  4.511200000E-02  2.395784008E-02
 
[MO]
Sym=     1a  
Ene=   -21.0590
Spin= Alpha
Occup=    2.00000
   1        -0.00002564
   2        -0.00575098
   3         0.00000000
   4        -0.00000000
   5         0.00141574
   6         1.00035531
   7         0.00623709
   8         0.00000000
   9         0.00000000
  10        -0.00897418
Sym=     2a  
Ene=    -8.4179
Spin= Alpha
Occup=    2.00000
   1         0.97417037
   2        -0.01408380
   3         0.00000000
   4         0.00000000
   5         0.01616579
   6        -0.03796846
   7         0.03319197
   8        -0.00000000
   9        -0.00000000
  10        -0.04417785
Sym=     3a  
Ene=    -1.5033
Spin= Alpha
Occup=    2.00000
   1        -0.39296777
   2        -0.04471506
   3         0.00000000
   4         0.00000000
   5         0.18275546
   6        -0.01698762
   7         0.96334723
   8        -0.00000000
   9         0.00000000
  10        -0.27629783
Sym=     4a  
Ene=    -0.9428
Spin= Alpha
Occup=    2.00000
   1        -0.00000000
   2        -0.00000000
   3        -0.17770457
   4         0.15745777
   5         0.00000000
   6        -0.00000000
   7         0.00000000
   8        -0.61916639
   9         0.54862155
  10        -0.00000000
Sym=     5a  
Ene=    -0.9428
Spin= Alpha
Occup=    2.00000
   1        -0.00000000
   2        -0.00000000
   3        -0.15745777
   4        -0.17770457
   5         0.00000000
   6         0.00000000
   7         0.00000000
   8        -0.54862155
   9        -0.61916639
  10        -0.00000000
Sym=     6a  
Ene=    -0.4602
Spin= Alpha
Occup=    2.00000
   1         0.38244404
   2         0.08641928
   3         0.00000000
   4        -0.00000000
   5        -0.35646642
   6         0.04530495
   7         0.25899041
   8        -0.00000000
   9         0.00000000
  10         1.13338792
Sym=     7a  
Ene=     0.0033
Spin= Alpha
Occup=    1.00000
   1        -0.10269910
   2        -0.84934306
   3         0.00000000
   4        -0.00000000
   5         0.65376181
   6        -0.01618418
   7         0.18016681
   8         0.00000000
   9         0.00000000
  10        -0.13333760
Sym=     8a  
Ene=     0.4686
Spin= Alpha
Occup=    0.00000
   1        -0.00000000
   2        -0.00000000
   3         0.40486604
   4        -1.24563557
   5        -0.00000000
   6         0.00000000
   7         0.00000000
   8        -0.32235636
   9         0.99178127
  10        -0.00000000
Sym=     9a  
Ene=     0.4686
Spin= Alpha
Occup=    0.00000
   1        -0.00000000
   2        -0.00000000
   3        -1.24563557
   4        -0.40486604
   5        -0.00000000
   6         0.00000000
   7         0.00000000
   8         0.99178127
   9         0.32235636
  10         0.00000000
Sym=    10a  
Ene=     0.8362
Spin= Alpha
Occup=    0.00000
   1        -0.75617399
   2        -1.92667093
   3         0.00000000
   4         0.00000000
   5        -1.50759373
   6         0.49507424
   7         2.31718332
   8        -0.00000000
   9        -0.00000000
  10        -0.32792157
