[Molden Format]
[N_Atoms]
                     2
[Atoms] (AU)
B1          1      5           0.00000000      0.00000000      0.00000000
O2          2      8           0.00000000      0.00000000      1.13383567
[Charge] (Mulliken)
   1.14172292294970     
  -1.14172292294974     
[GTO] (AU)
   1
   s  14
  3.336021700E+04  1.039699991E-04
  4.972095200E+03  5.254399956E-04
  1.125641700E+03  2.509059979E-03
  3.164913600E+02  1.031887991E-02
  1.020072600E+02  3.636632969E-02
  3.629587300E+01  1.064607991E-01
  1.397141000E+01  2.403999880E-01
  5.741156000E+00  3.748581168E-01
  2.494268000E+00  3.100066974E-01
  1.114202000E+00  7.922455933E-02
  4.215490000E-01 -4.947589958E-03
  1.696330000E-01 -7.737119935E-03
  6.853500000E-02 -1.501079987E-03
  2.398700000E-02 -1.333299989E-04
   s  14
  3.336021700E+04 -2.030000008E-05
  4.972095200E+03 -1.025700004E-04
  1.125641700E+03 -4.911300020E-04
  3.164913600E+02 -2.026570008E-03
  1.020072600E+02 -7.261010030E-03
  3.629587300E+01 -2.197722009E-02
  1.397141000E+01 -5.408428022E-02
  5.741156000E+00 -1.022402604E-01
  2.494268000E+00 -1.423595206E-01
  1.114202000E+00 -4.658690019E-02
  4.215490000E-01  3.799402916E-01
  1.696330000E-01  5.890463624E-01
  6.853500000E-02  1.749075107E-01
  2.398700000E-02 -1.142030005E-03
   p   9
  5.500000000E+01  1.229800005E-03
  1.336610100E+01  8.827380035E-03
  4.135394000E+00  3.843340015E-02
  1.481256000E+00  1.150031805E-01
  6.021360000E-01  2.733674011E-01
  2.556360000E-01  4.061972116E-01
  1.111510000E-01  3.014967912E-01
  4.764800000E-02  7.684809030E-02
  1.667700000E-02 -8.170000032E-06
 
   2
   s  14
  1.053749500E+05  1.238600013E-04
  1.567924000E+04  5.120100053E-04
  3.534544700E+03  2.152910022E-03
  9.873651600E+02  8.528440089E-03
  3.159787500E+02  3.018049031E-02
  1.116542800E+02  9.099702095E-02
  4.269945100E+01  2.177936423E-01
  1.739559600E+01  3.686245738E-01
  7.438309000E+00  3.366707335E-01
  3.222862000E+00  9.657630101E-02
  1.253877000E+00  2.144520022E-03
  4.951550000E-01  1.194350012E-03
  1.916650000E-01  5.390200056E-04
  6.708300000E-02  2.103400022E-04
   s  14
  1.053749500E+05 -2.815000008E-05
  1.567924000E+04 -1.163000003E-04
  3.534544700E+03 -4.909200013E-04
  9.873651600E+02 -1.946160005E-03
  3.159787500E+02 -7.005300019E-03
  1.116542800E+02 -2.167814006E-02
  4.269945100E+01 -5.641213015E-02
  1.739559600E+01 -1.127053003E-01
  7.438309000E+00 -1.589119704E-01
  3.222862000E+00 -3.355083009E-02
  1.253877000E+00  3.531902810E-01
  4.951550000E-01  5.534199315E-01
  1.916650000E-01  2.301839106E-01
  6.708300000E-02  1.127267003E-02
   p   9
  2.000000000E+02  9.173000030E-04
  4.653336700E+01  7.377140024E-03
  1.462180900E+01  3.483515011E-02
  5.313064000E+00  1.144397004E-01
  2.102525000E+00  2.554966408E-01
  8.502230000E-01  3.722557412E-01
  3.375970000E-01  3.323314911E-01
  1.288920000E-01  1.400847905E-01
  4.511200000E-02  2.395784008E-02
 
[MO]
Sym=     1a  
Ene=   -21.0600
Spin= Alpha
Occup=    1.00000
   1         0.00006914
   2        -0.00566896
   3         0.00000000
   4        -0.00000000
   5         0.00151262
   6         1.00032687
   7         0.00599990
   8         0.00000000
   9         0.00000000
  10        -0.00893017
Sym=     1a  
Ene=   -21.0590
Spin= Beta
Occup=    1.00000
   1        -0.00010139
   2        -0.00587606
   3         0.00000000
   4        -0.00000000
   5         0.00133722
   6         1.00038507
   7         0.00649412
   8         0.00000000
   9         0.00000000
  10        -0.00895162
Sym=     2a  
Ene=    -8.4272
Spin= Alpha
Occup=    1.00000
   1         0.97394871
   2        -0.01338529
   3         0.00000000
   4         0.00000000
   5         0.01468661
   6        -0.03779472
   7         0.03401654
   8        -0.00000000
   9        -0.00000000
  10        -0.04415541
Sym=     2a  
Ene=    -8.4085
Spin= Beta
Occup=    1.00000
   1         0.97464595
   2        -0.01348356
   3         0.00000000
   4         0.00000000
   5         0.01652527
   6        -0.03809582
   7         0.03222224
   8        -0.00000000
   9        -0.00000000
  10        -0.04366030
Sym=     3a  
Ene=    -1.5048
Spin= Alpha
Occup=    1.00000
   1        -0.39160930
   2        -0.03364221
   3         0.00000000
   4         0.00000000
   5         0.17596704
   6        -0.01696004
   7         0.95981864
   8        -0.00000000
   9         0.00000000
  10        -0.27437819
Sym=     3a  
Ene=    -1.5027
Spin= Beta
Occup=    1.00000
   1        -0.39045426
   2        -0.04743434
   3         0.00000000
   4         0.00000000
   5         0.18039204
   6        -0.01642956
   7         0.96746195
   8        -0.00000000
   9        -0.00000000
  10        -0.26803290
Sym=     4a  
Ene=    -0.9443
Spin= Alpha
Occup=    1.00000
   1         0.00000000
   2         0.00000000
   3        -0.01584100
   4         0.26222929
   5        -0.00000000
   6        -0.00000000
   7        -0.00000000
   8        -0.04865759
   9         0.80546992
  10        -0.00000000
Sym=     4a  
Ene=    -0.9425
Spin= Beta
Occup=    1.00000
   1        -0.00000000
   2        -0.00000000
   3        -0.07961378
   4         0.19759110
   5         0.00000000
   6        -0.00000000
   7        -0.00000000
   8        -0.31636192
   9         0.78516937
  10        -0.00000000
Sym=     5a  
Ene=    -0.9443
Spin= Alpha
Occup=    1.00000
   1        -0.00000000
   2        -0.00000000
   3        -0.26222929
   4        -0.01584100
   5         0.00000000
   6         0.00000000
   7         0.00000000
   8        -0.80546992
   9        -0.04865759
  10        -0.00000000
Sym=     5a  
Ene=    -0.9425
Spin= Beta
Occup=    1.00000
   1         0.00000000
   2         0.00000000
   3         0.19759110
   4         0.07961378
   5        -0.00000000
   6        -0.00000000
   7        -0.00000000
   8         0.78516937
   9         0.31636192
  10         0.00000000
Sym=     6a  
Ene=    -0.6067
Spin= Alpha
Occup=    1.00000
   1         0.34566354
   2         0.65557429
   3         0.00000000
   4         0.00000000
   5        -0.71621977
   6         0.04447898
   7         0.05299935
   8        -0.00000000
   9        -0.00000000
  10         0.90277107
Sym=     6a  
Ene=    -0.5907
Spin= Beta
Occup=    1.00000
   1         0.38754481
   2         0.09503669
   3         0.00000000
   4        -0.00000000
   5        -0.35652441
   6         0.04416810
   7         0.24480462
   8        -0.00000000
   9         0.00000000
  10         1.13686583
Sym=     7a  
Ene=    -0.5810
Spin= Alpha
Occup=    1.00000
   1         0.19149775
   2        -0.54885875
   3         0.00000000
   4        -0.00000000
   5         0.21364009
   6         0.02114431
   7         0.32313579
   8        -0.00000000
   9         0.00000000
  10         0.69752478
Sym=     7a  
Ene=    -0.0302
Spin= Beta
Occup=    0.00000
   1        -0.13992388
   2        -0.94907769
   3         0.00000000
   4        -0.00000000
   5         0.57166459
   6         0.01008969
   7         0.30056544
   8         0.00000000
   9         0.00000000
  10        -0.14521570
Sym=     8a  
Ene=     0.4389
Spin= Alpha
Occup=    0.00000
   1        -0.00000000
   2        -0.00000000
   3         0.34306162
   4        -1.25904326
   5        -0.00000000
   6         0.00000000
   7         0.00000000
   8        -0.27831317
   9         1.02141508
  10        -0.00000000
Sym=     8a  
Ene=     0.4988
Spin= Beta
Occup=    0.00000
   1        -0.00000000
   2        -0.00000000
   3        -1.30576536
   4         0.14660348
   5        -0.00000000
   6         0.00000000
   7         0.00000000
   8         1.02087382
   9        -0.11461757
  10         0.00000000
Sym=     9a  
Ene=     0.4389
Spin= Alpha
Occup=    0.00000
   1         0.00000000
   2        -0.00000000
   3        -1.25904326
   4        -0.34306162
   5        -0.00000000
   6         0.00000000
   7         0.00000000
   8         1.02141508
   9         0.27831317
  10         0.00000000
Sym=     9a  
Ene=     0.4988
Spin= Beta
Occup=    0.00000
   1         0.00000000
   2         0.00000000
   3         0.14660348
   4         1.30576536
   5         0.00000000
   6        -0.00000000
   7        -0.00000000
   8        -0.11461757
   9        -1.02087382
  10         0.00000000
Sym=    10a  
Ene=     0.8228
Spin= Alpha
Occup=    0.00000
   1        -0.75759660
   2        -1.92633772
   3         0.00000000
   4         0.00000000
   5        -1.50704324
   6         0.49503384
   7         2.31697703
   8        -0.00000000
   9        -0.00000000
  10        -0.33076137
Sym=    10a  
Ene=     0.8515
Spin= Beta
Occup=    0.00000
   1        -0.74825282
   2        -1.87906809
   3         0.00000000
   4         0.00000000
   5        -1.54085961
   6         0.49528755
   7         2.30450021
   8        -0.00000000
   9        -0.00000000
  10        -0.31760486
