[Molden Format]
[N_Atoms]
                     2
[Atoms] (AU)
O1          1      8           0.00000000      0.00000000      0.00000000
O2          2      8           0.00000000      0.00000000      4.72431531
[Charge] (Mulliken)
   1.00053356723954     
  0.999466432760435     
[GTO] (AU)
   1
   s  14
  1.053749500E+05  1.238600013E-04
  1.567924000E+04  5.120100053E-04
  3.534544700E+03  2.152910022E-03
  9.873651600E+02  8.528440089E-03
  3.159787500E+02  3.018049031E-02
  1.116542800E+02  9.099702095E-02
  4.269945100E+01  2.177936423E-01
  1.739559600E+01  3.686245738E-01
  7.438309000E+00  3.366707335E-01
  3.222862000E+00  9.657630101E-02
  1.253877000E+00  2.144520022E-03
  4.951550000E-01  1.194350012E-03
  1.916650000E-01  5.390200056E-04
  6.708300000E-02  2.103400022E-04
   s  14
  1.053749500E+05 -2.815000008E-05
  1.567924000E+04 -1.163000003E-04
  3.534544700E+03 -4.909200013E-04
  9.873651600E+02 -1.946160005E-03
  3.159787500E+02 -7.005300019E-03
  1.116542800E+02 -2.167814006E-02
  4.269945100E+01 -5.641213015E-02
  1.739559600E+01 -1.127053003E-01
  7.438309000E+00 -1.589119704E-01
  3.222862000E+00 -3.355083009E-02
  1.253877000E+00  3.531902810E-01
  4.951550000E-01  5.534199315E-01
  1.916650000E-01  2.301839106E-01
  6.708300000E-02  1.127267003E-02
   p   9
  2.000000000E+02  9.173000030E-04
  4.653336700E+01  7.377140024E-03
  1.462180900E+01  3.483515011E-02
  5.313064000E+00  1.144397004E-01
  2.102525000E+00  2.554966408E-01
  8.502230000E-01  3.722557412E-01
  3.375970000E-01  3.323314911E-01
  1.288920000E-01  1.400847905E-01
  4.511200000E-02  2.395784008E-02
 
   2
   s  14
  1.053749500E+05  1.238600013E-04
  1.567924000E+04  5.120100053E-04
  3.534544700E+03  2.152910022E-03
  9.873651600E+02  8.528440089E-03
  3.159787500E+02  3.018049031E-02
  1.116542800E+02  9.099702095E-02
  4.269945100E+01  2.177936423E-01
  1.739559600E+01  3.686245738E-01
  7.438309000E+00  3.366707335E-01
  3.222862000E+00  9.657630101E-02
  1.253877000E+00  2.144520022E-03
  4.951550000E-01  1.194350012E-03
  1.916650000E-01  5.390200056E-04
  6.708300000E-02  2.103400022E-04
   s  14
  1.053749500E+05 -2.815000008E-05
  1.567924000E+04 -1.163000003E-04
  3.534544700E+03 -4.909200013E-04
  9.873651600E+02 -1.946160005E-03
  3.159787500E+02 -7.005300019E-03
  1.116542800E+02 -2.167814006E-02
  4.269945100E+01 -5.641213015E-02
  1.739559600E+01 -1.127053003E-01
  7.438309000E+00 -1.589119704E-01
  3.222862000E+00 -3.355083009E-02
  1.253877000E+00  3.531902810E-01
  4.951550000E-01  5.534199315E-01
  1.916650000E-01  2.301839106E-01
  6.708300000E-02  1.127267003E-02
   p   9
  2.000000000E+02  9.173000030E-04
  4.653336700E+01  7.377140024E-03
  1.462180900E+01  3.483515011E-02
  5.313064000E+00  1.144397004E-01
  2.102525000E+00  2.554966408E-01
  8.502230000E-01  3.722557412E-01
  3.375970000E-01  3.323314911E-01
  1.288920000E-01  1.400847905E-01
  4.511200000E-02  2.395784008E-02
 
[MO]
Sym=     1a  
Ene=   -22.0380
Spin= Alpha
Occup=    2.00000
   1         0.01439777
   2        -0.00023275
   3         0.00000000
   4         0.00000000
   5         0.00005673
   6         0.99989410
   7        -0.00201148
   8         0.00000000
   9         0.00000000
  10        -0.00017269
Sym=     2a  
Ene=   -22.0350
Spin= Alpha
Occup=    2.00000
   1        -0.99977398
   2         0.01540482
   3        -0.00000000
   4        -0.00000000
   5        -0.00072715
   6         0.01439931
   7        -0.00024827
   8        -0.00000000
   9        -0.00000000
  10         0.00087871
Sym=     3a  
Ene=    -2.1788
Spin= Alpha
Occup=    2.00000
   1         0.00082592
   2         0.00115823
   3        -0.00000000
   4        -0.00000000
   5        -0.01393134
   6        -0.00194747
   7        -0.99848213
   8         0.00000000
   9         0.00000000
  10         0.03331734
Sym=     4a  
Ene=    -1.5066
Spin= Alpha
Occup=    2.00000
   1         0.00000000
   2        -0.00000000
   3         0.84581878
   4        -0.53371748
   5        -0.00000000
   6         0.00000000
   7         0.00000000
   8        -0.00460236
   9         0.00290423
  10         0.00000000
Sym=     5a  
Ene=    -1.5064
Spin= Alpha
Occup=    2.00000
   1         0.00000000
   2         0.00000000
   3        -0.00289989
   4        -0.00459548
   5        -0.00000002
   6         0.00000000
   7         0.00000002
   8         0.53371741
   9         0.84581862
  10         0.00000031
Sym=     6a  
Ene=    -1.3564
Spin= Alpha
Occup=    2.00000
   1         0.00268757
   2        -0.04113283
   3        -0.00000004
   4        -0.00000006
   5        -0.67869384
   6         0.00307729
   7         0.07719670
   8        -0.00000013
   9        -0.00000020
  10         0.67680519
Sym=     7a  
Ene=    -2.1642
Spin= Alpha
Occup=    1.97494
   1        -0.01568084
   2        -1.00066202
   3         0.00000000
   4         0.00000001
   5         0.04567654
   6         0.00054077
   7         0.01804264
   8         0.00000000
   9         0.00000001
  10        -0.06540926
Sym=     8a  
Ene=    -0.0000
Spin= Alpha
Occup=    0.02506
   1         0.00000000
   2        -0.00000000
   3        -0.53383313
   4        -0.84600206
   5         0.00000012
   6        -0.00000000
   7        -0.00000001
   8         0.01148803
   9         0.01820587
  10         0.00000002
Sym=     9a  
Ene=    -1.0750
Spin= Alpha
Occup=    0.00000
   1         0.00300463
   2         0.03303295
   3         0.00000005
   4         0.00000008
   5         0.74028507
   6        -0.00300406
   7        -0.03302625
   8        -0.00000010
   9        -0.00000016
  10         0.73991472
Sym=    10a  
Ene=    -0.9055
Spin= Alpha
Occup=    0.00000
   1         0.00000000
   2         0.00000000
   3        -0.01819900
   4         0.01148369
   5         0.00000000
   6        -0.00000000
   7         0.00000000
   8         0.84600201
   9        -0.53383313
  10         0.00000000
