[Molden Format]
[N_Atoms]
                     2
[Atoms] (AU)
O1          1      8           0.00000000      0.00000000      0.00000000
O2          2      8           0.00000000      0.00000000      4.72431531
[Charge] (Mulliken)
 -2.062474194985953E-006
  2.062474187880525E-006
[GTO] (AU)
   1
   s  14
  1.053749500E+05  1.238600013E-04
  1.567924000E+04  5.120100053E-04
  3.534544700E+03  2.152910022E-03
  9.873651600E+02  8.528440089E-03
  3.159787500E+02  3.018049031E-02
  1.116542800E+02  9.099702095E-02
  4.269945100E+01  2.177936423E-01
  1.739559600E+01  3.686245738E-01
  7.438309000E+00  3.366707335E-01
  3.222862000E+00  9.657630101E-02
  1.253877000E+00  2.144520022E-03
  4.951550000E-01  1.194350012E-03
  1.916650000E-01  5.390200056E-04
  6.708300000E-02  2.103400022E-04
   s  14
  1.053749500E+05 -2.815000008E-05
  1.567924000E+04 -1.163000003E-04
  3.534544700E+03 -4.909200013E-04
  9.873651600E+02 -1.946160005E-03
  3.159787500E+02 -7.005300019E-03
  1.116542800E+02 -2.167814006E-02
  4.269945100E+01 -5.641213015E-02
  1.739559600E+01 -1.127053003E-01
  7.438309000E+00 -1.589119704E-01
  3.222862000E+00 -3.355083009E-02
  1.253877000E+00  3.531902810E-01
  4.951550000E-01  5.534199315E-01
  1.916650000E-01  2.301839106E-01
  6.708300000E-02  1.127267003E-02
   p   9
  2.000000000E+02  9.173000030E-04
  4.653336700E+01  7.377140024E-03
  1.462180900E+01  3.483515011E-02
  5.313064000E+00  1.144397004E-01
  2.102525000E+00  2.554966408E-01
  8.502230000E-01  3.722557412E-01
  3.375970000E-01  3.323314911E-01
  1.288920000E-01  1.400847905E-01
  4.511200000E-02  2.395784008E-02
 
   2
   s  14
  1.053749500E+05  1.238600013E-04
  1.567924000E+04  5.120100053E-04
  3.534544700E+03  2.152910022E-03
  9.873651600E+02  8.528440089E-03
  3.159787500E+02  3.018049031E-02
  1.116542800E+02  9.099702095E-02
  4.269945100E+01  2.177936423E-01
  1.739559600E+01  3.686245738E-01
  7.438309000E+00  3.366707335E-01
  3.222862000E+00  9.657630101E-02
  1.253877000E+00  2.144520022E-03
  4.951550000E-01  1.194350012E-03
  1.916650000E-01  5.390200056E-04
  6.708300000E-02  2.103400022E-04
   s  14
  1.053749500E+05 -2.815000008E-05
  1.567924000E+04 -1.163000003E-04
  3.534544700E+03 -4.909200013E-04
  9.873651600E+02 -1.946160005E-03
  3.159787500E+02 -7.005300019E-03
  1.116542800E+02 -2.167814006E-02
  4.269945100E+01 -5.641213015E-02
  1.739559600E+01 -1.127053003E-01
  7.438309000E+00 -1.589119704E-01
  3.222862000E+00 -3.355083009E-02
  1.253877000E+00  3.531902810E-01
  4.951550000E-01  5.534199315E-01
  1.916650000E-01  2.301839106E-01
  6.708300000E-02  1.127267003E-02
   p   9
  2.000000000E+02  9.173000030E-04
  4.653336700E+01  7.377140024E-03
  1.462180900E+01  3.483515011E-02
  5.313064000E+00  1.144397004E-01
  2.102525000E+00  2.554966408E-01
  8.502230000E-01  3.722557412E-01
  3.375970000E-01  3.323314911E-01
  1.288920000E-01  1.400847905E-01
  4.511200000E-02  2.395784008E-02
 
[MO]
Sym=     1a  
Ene=   -20.7760
Spin= Alpha
Occup=    2.00000
   1         0.69497563
   2        -0.00032428
   3         0.00000000
   4        -0.00000000
   5         0.00012165
   6         0.71902649
   7        -0.00033366
   8         0.00000000
   9        -0.00000000
  10        -0.00012635
Sym=     2a  
Ene=   -20.7760
Spin= Alpha
Occup=    2.00000
   1        -0.71903324
   2         0.00028111
   3         0.00000000
   4        -0.00000000
   5        -0.00014024
   6         0.69498261
   7        -0.00026992
   8         0.00000000
   9        -0.00000000
  10        -0.00013603
Sym=     3a  
Ene=    -1.3052
Spin= Alpha
Occup=    2.00000
   1         0.00025911
   2        -0.69810945
   3        -0.00000000
   4         0.00000000
   5        -0.01406675
   6         0.00025907
   7        -0.69814992
   8         0.00000000
   9         0.00000000
  10         0.01406547
Sym=     4a  
Ene=    -1.2751
Spin= Alpha
Occup=    2.00000
   1        -0.00073515
   2        -0.71385874
   3         0.00000000
   4         0.00000000
   5         0.02019532
   6         0.00073517
   7         0.71381917
   8         0.00000000
   9        -0.00000000
  10         0.02019629
Sym=     5a  
Ene=    -0.5208
Spin= Alpha
Occup=    2.00000
   1         0.00000000
   2         0.00000000
   3         0.15389968
   4         0.68057865
   5         0.00000000
   6         0.00000000
   7        -0.00000000
   8         0.15390164
   9         0.68058735
  10         0.00000000
Sym=     6a  
Ene=    -0.5208
Spin= Alpha
Occup=    2.00000
   1         0.00000000
   2         0.00000000
   3         0.68057865
   4        -0.15389968
   5        -0.00000000
   6        -0.00000000
   7        -0.00000000
   8         0.68058735
   9        -0.15390164
  10         0.00000000
Sym=     7a  
Ene=    -0.4574
Spin= Alpha
Occup=    2.00000
   1         0.00292677
   2         0.05520497
   3        -0.00000000
   4         0.00000000
   5        -0.68029232
   6         0.00292681
   7         0.05520574
   8        -0.00000000
   9         0.00000000
  10         0.68028160
Sym=     8a  
Ene=    -0.4018
Spin= Alpha
Occup=    1.00000
   1         0.00000000
   2         0.00000000
   3        -0.60623453
   4         0.38253641
   5        -0.00000000
   6        -0.00000000
   7         0.00000000
   8         0.60622720
   9        -0.38253178
  10        -0.00000000
Sym=     9a  
Ene=    -0.0000
Spin= Alpha
Occup=    1.00000
   1        -0.00000000
   2        -0.00000000
   3         0.38253641
   4         0.60623453
   5         0.00000000
   6         0.00000000
   7        -0.00000000
   8        -0.38253178
   9        -0.60622720
  10        -0.00000000
Sym=    10a  
Ene=    -0.1534
Spin= Alpha
Occup=    0.00000
   1         0.00300624
   2         0.06593471
   3        -0.00000000
   4         0.00000000
   5         0.73994923
   6        -0.00300619
   7        -0.06593404
   8        -0.00000000
   9        -0.00000000
  10         0.73995909
