[Molden Format]
[N_Atoms]
                     2
[Atoms] (AU)
C1          1      6           0.00000000      0.00000000      0.00000000
F2          2      9           0.00000000      0.00000000      1.13383567
[Charge] (Mulliken)
  0.464097036131768     
 -0.464097036131786     
[GTO] (AU)
   1
   s  14
  5.055750100E+04  1.128874000E-04
  7.524785600E+03  5.295373000E-04
  1.694327600E+03  2.450038300E-03
  4.728227900E+02  1.005398470E-02
  1.517107500E+02  3.545398060E-02
  5.391874600E+01  1.044071086E-01
  2.065931100E+01  2.412894918E-01
  8.383976000E+00  3.834225483E-01
  3.577015000E+00  3.078514393E-01
  1.547118000E+00  6.872442990E-02
  6.130130000E-01  2.224445000E-04
  2.460680000E-01  1.976748900E-03
  9.908700000E-02  2.057859400E-03
  3.468000000E-02  4.182020000E-04
   s  14
  5.055750100E+04 -2.507420000E-05
  7.524785600E+03 -1.175945000E-04
  1.694327600E+03 -5.456275000E-04
  4.728227900E+02 -2.245077100E-03
  1.517107500E+02 -8.043471800E-03
  5.391874600E+01 -2.442588710E-02
  2.065931100E+01 -6.136791180E-02
  8.383976000E+00 -1.177767835E-01
  3.577015000E+00 -1.550487783E-01
  1.547118000E+00 -1.933316860E-02
  6.130130000E-01  3.996930678E-01
  2.460680000E-01  5.589420949E-01
  9.908700000E-02  1.711195023E-01
  3.468000000E-02  7.456244600E-03
   p   9
  8.333315500E+01  1.344656000E-03
  1.955761100E+01  1.023555500E-02
  6.080365000E+00  4.520067100E-02
  2.179317000E+00  1.410756198E-01
  8.651500000E-01  3.047388085E-01
  3.619440000E-01  3.995281011E-01
  1.547400000E-01  2.719163432E-01
  6.542900000E-02  5.857669330E-02
  2.290000000E-02 -1.263813000E-04
 
   2
   s  14
  1.031094600E+05  1.713099991E-04
  1.528100700E+04  7.123999962E-04
  3.441539200E+03  2.990479984E-03
  9.670948300E+02  1.164036994E-02
  3.140353400E+02  3.968642979E-02
  1.134423000E+02  1.128546094E-01
  4.464472700E+01  2.473650687E-01
  1.894287400E+01  3.672702681E-01
  8.532743000E+00  2.896286985E-01
  3.919401000E+00  7.786681959E-02
  1.568157000E+00  4.562139976E-03
  6.232900000E-01  2.468879987E-03
  2.408610000E-01  1.106309994E-03
  8.430100000E-02  1.739699991E-04
   s  14
  1.031094600E+05 -4.044999995E-05
  1.528100700E+04 -1.682299998E-04
  3.441539200E+03 -7.084299991E-04
  9.670948300E+02 -2.767999996E-03
  3.140353400E+02 -9.611379987E-03
  1.134423000E+02 -2.833957996E-02
  4.464472700E+01 -6.839343991E-02
  1.894287400E+01 -1.237379298E-01
  8.532743000E+00 -1.512859698E-01
  3.919401000E+00 -9.099909988E-03
  1.568157000E+00  3.716257695E-01
  6.232900000E-01  5.500214393E-01
  2.408610000E-01  2.092318697E-01
  8.430100000E-02  8.074639989E-03
   p   9
  2.453302900E+02  1.024860004E-03
  5.691900500E+01  8.344290032E-03
  1.760456800E+01  4.078927016E-02
  6.274995000E+00  1.351370605E-01
  2.447030000E+00  2.798830811E-01
  9.950600000E-01  3.597966414E-01
  4.039730000E-01  3.055347412E-01
  1.548100000E-01  1.354703905E-01
  5.418400000E-02  2.804449011E-02
 
[MO]
Sym=     1a  
Ene=   -27.1050
Spin= Alpha
Occup=    1.00000
   1        -0.00176552
   2        -0.00665579
   3        -0.00000000
   4        -0.00000000
   5        -0.00099211
   6         1.00094907
   7         0.00452223
   8        -0.00000000
   9         0.00000000
  10        -0.00760474
Sym=     1a  
Ene=   -27.0770
Spin= Beta
Occup=    1.00000
   1        -0.00127200
   2        -0.00556465
   3        -0.00000000
   4        -0.00000000
   5        -0.00036530
   6         1.00070459
   7         0.00271598
   8        -0.00000000
   9        -0.00000000
  10        -0.00747587
Sym=     2a  
Ene=   -12.0380
Spin= Alpha
Occup=    1.00000
   1         0.98521703
   2        -0.02053124
   3         0.00000000
   4         0.00000000
   5         0.01054082
   6        -0.01721751
   7         0.02343311
   8        -0.00000000
   9        -0.00000000
  10        -0.03065078
Sym=     2a  
Ene=   -12.0150
Spin= Beta
Occup=    1.00000
   1         0.98508714
   2        -0.02271283
   3         0.00000000
   4         0.00000000
   5         0.01066174
   6        -0.01703870
   7         0.02435392
   8        -0.00000000
   9        -0.00000000
  10        -0.03041016
Sym=     3a  
Ene=    -2.3994
Spin= Alpha
Occup=    1.00000
   1        -0.37097708
   2        -0.15357478
   3         0.00000000
   4         0.00000000
   5         0.15398152
   6        -0.00453569
   7         0.98440898
   8         0.00000000
   9        -0.00000000
  10        -0.44689998
Sym=     3a  
Ene=    -2.3644
Spin= Beta
Occup=    1.00000
   1        -0.37166884
   2        -0.15199952
   3         0.00000000
   4         0.00000000
   5         0.16609023
   6        -0.00633852
   7         0.97099340
   8         0.00000000
   9        -0.00000000
  10        -0.45948273
Sym=     4a  
Ene=    -1.4376
Spin= Alpha
Occup=    1.00000
   1         0.00000000
   2        -0.00000000
   3         0.10122446
   4         0.12696212
   5        -0.00000000
   6         0.00000000
   7         0.00000000
   8         0.55622977
   9         0.69765855
  10         0.00000000
Sym=     4a  
Ene=    -1.3452
Spin= Beta
Occup=    1.00000
   1        -0.00000000
   2        -0.00000000
   3         0.15917008
   4        -0.12690325
   5         0.00000000
   6        -0.00000000
   7        -0.00000000
   8         0.67420609
   9        -0.53753157
  10        -0.00000000
Sym=     5a  
Ene=    -1.3595
Spin= Alpha
Occup=    1.00000
   1        -0.00000000
   2        -0.00000000
   3         0.16071544
   4        -0.12813534
   5         0.00000000
   6        -0.00000000
   7        -0.00000000
   8         0.67305925
   9        -0.53661723
  10        -0.00000000
Sym=     5a  
Ene=    -1.3032
Spin= Beta
Occup=    1.00000
   1         0.00000000
   2         0.00000000
   3         0.12469011
   4         0.15639423
   5        -0.00000000
   6         0.00000000
   7         0.00000000
   8         0.53917000
   9         0.67626111
  10         0.00000000
Sym=     6a  
Ene=    -1.2038
Spin= Alpha
Occup=    1.00000
   1         0.25008908
   2         0.14344432
   3         0.00000000
   4        -0.00000000
   5        -0.24065758
   6         0.02714527
   7         0.37202546
   8         0.00000000
   9        -0.00000000
  10         1.02032469
Sym=     6a  
Ene=    -1.1711
Spin= Beta
Occup=    1.00000
   1         0.25479865
   2         0.18835271
   3         0.00000000
   4        -0.00000000
   5        -0.23424849
   6         0.02120734
   7         0.35263218
   8         0.00000000
   9        -0.00000000
  10         1.02292196
Sym=     7a  
Ene=    -0.6591
Spin= Alpha
Occup=    1.00000
   1        -0.12537349
   2        -1.01357469
   3         0.00000000
   4         0.00000000
   5         0.47841790
   6         0.03316729
   7         0.33721585
   8        -0.00000000
   9        -0.00000000
  10        -0.13434562
Sym=     7a  
Ene=    -0.5719
Spin= Beta
Occup=    1.00000
   1        -0.10652614
   2        -0.97390966
   3         0.00000000
   4         0.00000000
   5         0.50087071
   6         0.02475680
   7         0.30116538
   8        -0.00000000
   9        -0.00000000
  10        -0.09493356
Sym=     8a  
Ene=    -0.1269
Spin= Alpha
Occup=    1.00000
   1        -0.00000000
   2        -0.00000000
   3        -0.78221733
   4        -0.98110644
   5        -0.00000000
   6         0.00000000
   7         0.00000000
   8         0.55921265
   9         0.70139986
  10        -0.00000000
Sym=     8a  
Ene=     0.4644
Spin= Beta
Occup=    0.00000
   1        -0.00000000
   2        -0.00000000
   3        -0.97639854
   4         0.77846382
   5        -0.00000000
   6         0.00000000
   7         0.00000000
   8         0.72397195
   9        -0.57720894
  10        -0.00000000
Sym=     9a  
Ene=     0.4365
Spin= Alpha
Occup=    0.00000
   1        -0.00000000
   2        -0.00000000
   3        -0.97614536
   4         0.77826196
   5        -0.00000000
   6         0.00000000
   7         0.00000000
   8         0.72503825
   9        -0.57805908
  10        -0.00000000
Sym=     9a  
Ene=     0.5175
Spin= Beta
Occup=    0.00000
   1        -0.00000000
   2        -0.00000000
   3        -0.77882137
   4        -0.97684700
   5        -0.00000000
   6         0.00000000
   7         0.00000000
   8         0.57567878
   9         0.72205273
  10        -0.00000000
Sym=    10a  
Ene=     1.2087
Spin= Alpha
Occup=    0.00000
   1        -0.70001265
   2        -1.97086490
   3         0.00000000
   4        -0.00000000
   5        -1.69385971
   6         0.53382878
   7         2.38920240
   8        -0.00000000
   9        -0.00000000
  10        -0.57768706
Sym=    10a  
Ene=     1.2413
Spin= Beta
Occup=    0.00000
   1        -0.70125194
   2        -1.98711901
   3         0.00000000
   4        -0.00000000
   5        -1.68710975
   6         0.53499845
   7         2.40240660
   8        -0.00000000
   9         0.00000000
  10        -0.57101987
