[Molden Format]
[N_Atoms]
                     2
[Atoms] (AU)
C1          1      6           0.00000000      0.00000000      0.00000000
N2          2      7           0.00000000      0.00000000      4.15739747
[Charge] (Mulliken)
  0.147270967073979     
 -0.147270967073979     
[GTO] (AU)
   1
   s  14
  5.055750100E+04  1.128874000E-04
  7.524785600E+03  5.295373000E-04
  1.694327600E+03  2.450038300E-03
  4.728227900E+02  1.005398470E-02
  1.517107500E+02  3.545398060E-02
  5.391874600E+01  1.044071086E-01
  2.065931100E+01  2.412894918E-01
  8.383976000E+00  3.834225483E-01
  3.577015000E+00  3.078514393E-01
  1.547118000E+00  6.872442990E-02
  6.130130000E-01  2.224445000E-04
  2.460680000E-01  1.976748900E-03
  9.908700000E-02  2.057859400E-03
  3.468000000E-02  4.182020000E-04
   s  14
  5.055750100E+04 -2.507420000E-05
  7.524785600E+03 -1.175945000E-04
  1.694327600E+03 -5.456275000E-04
  4.728227900E+02 -2.245077100E-03
  1.517107500E+02 -8.043471800E-03
  5.391874600E+01 -2.442588710E-02
  2.065931100E+01 -6.136791180E-02
  8.383976000E+00 -1.177767835E-01
  3.577015000E+00 -1.550487783E-01
  1.547118000E+00 -1.933316860E-02
  6.130130000E-01  3.996930678E-01
  2.460680000E-01  5.589420949E-01
  9.908700000E-02  1.711195023E-01
  3.468000000E-02  7.456244600E-03
   p   9
  8.333315500E+01  1.344656000E-03
  1.955761100E+01  1.023555500E-02
  6.080365000E+00  4.520067100E-02
  2.179317000E+00  1.410756198E-01
  8.651500000E-01  3.047388085E-01
  3.619440000E-01  3.995281011E-01
  1.547400000E-01  2.719163432E-01
  6.542900000E-02  5.857669330E-02
  2.290000000E-02 -1.263813000E-04
 
   2
   s  14
  7.476171500E+04  1.182599996E-04
  1.112365400E+04  5.172899983E-04
  2.512685700E+03  2.266659992E-03
  7.037772900E+02  9.145289970E-03
  2.254787900E+02  3.239342989E-02
  7.961581000E+01  9.770792967E-02
  3.023728300E+01  2.317036792E-01
  1.226362200E+01  3.768898887E-01
  5.265086000E+00  3.177420689E-01
  2.333471000E+00  8.211308973E-02
  9.018560000E-01  3.312089989E-03
  3.583360000E-01  3.720819988E-03
  1.410930000E-01  3.165419989E-03
  4.938300000E-02  4.595799985E-04
   s  14
  7.476171500E+04 -2.707000010E-05
  1.112365400E+04 -1.183700004E-04
  2.512685700E+03 -5.203800020E-04
  7.037772900E+02 -2.102930008E-03
  2.254787900E+02 -7.568200028E-03
  7.961581000E+01 -2.346767009E-02
  3.023728300E+01 -6.042901023E-02
  1.226362200E+01 -1.170549104E-01
  5.265086000E+00 -1.555321506E-01
  2.333471000E+00 -2.468935009E-02
  9.018560000E-01  3.625054514E-01
  3.583360000E-01  5.550845021E-01
  1.410930000E-01  2.148376908E-01
  4.938300000E-02  8.983850034E-03
   p   9
  1.266665700E+02  1.233630000E-03
  2.983738900E+01  9.493409996E-03
  9.394038000E+00  4.293961998E-02
  3.405104000E+00  1.362925399E-01
  1.350000000E+00  2.921362499E-01
  5.576960000E-01  3.887887598E-01
  2.324490000E-01  2.946801399E-01
  9.426400000E-02  8.012875997E-02
  3.299200000E-02  5.405199998E-04
 
[MO]
Sym=     1a  
Ene=   -15.4510
Spin= Alpha
Occup=    1.00000
   1        -0.00039602
   2        -0.00059950
   3        -0.00001589
   4        -0.00003741
   5         0.00523501
   6         0.99989501
   7        -0.00549036
   8        -0.00007703
   9        -0.00018180
  10        -0.00193301
Sym=     1a  
Ene=   -15.4510
Spin= Beta
Occup=    1.00000
   1        -0.00039602
   2        -0.00059950
   3        -0.00001589
   4        -0.00003741
   5         0.00523501
   6         0.99989501
   7        -0.00549036
   8        -0.00007703
   9        -0.00018180
  10        -0.00193301
Sym=     2a  
Ene=   -11.3390
Spin= Alpha
Occup=    1.00000
   1         0.99984889
   2        -0.00285319
   3        -0.00003820
   4        -0.00008992
   5         0.01417628
   6        -0.00001783
   7        -0.00060224
   8        -0.00018466
   9        -0.00043581
  10        -0.00316617
Sym=     2a  
Ene=   -11.3390
Spin= Beta
Occup=    1.00000
   1         0.99984889
   2        -0.00285319
   3        -0.00003820
   4        -0.00008992
   5         0.01417628
   6        -0.00001783
   7        -0.00060224
   8        -0.00018466
   9        -0.00043581
  10        -0.00316617
Sym=     3a  
Ene=    -0.8542
Spin= Alpha
Occup=    1.00000
   1        -0.00310735
   2         0.31133919
   3         0.00051792
   4         0.00121968
   5        -0.12023190
   6         0.00505567
   7         0.93060694
   8         0.00277289
   9         0.00654381
  10         0.03488057
Sym=     3a  
Ene=    -0.8542
Spin= Beta
Occup=    1.00000
   1        -0.00310735
   2         0.31133919
   3         0.00051792
   4         0.00121968
   5        -0.12023190
   6         0.00505567
   7         0.93060694
   8         0.00277289
   9         0.00654381
  10         0.03488057
Sym=     4a  
Ene=    -0.7188
Spin= Alpha
Occup=    1.00000
   1        -0.00358418
   2        -0.94372740
   3         0.00010157
   4         0.00023927
   5        -0.00648193
   6         0.00768897
   7         0.40405570
   8         0.00050449
   9         0.00119020
  10         0.07626200
Sym=     4a  
Ene=    -0.7188
Spin= Beta
Occup=    1.00000
   1        -0.00358418
   2        -0.94372740
   3         0.00010157
   4         0.00023927
   5        -0.00648193
   6         0.00768897
   7         0.40405570
   8         0.00050449
   9         0.00119020
  10         0.07626200
Sym=     5a  
Ene=    -0.3475
Spin= Alpha
Occup=    1.00000
   1        -0.00008770
   2        -0.00170890
   3         0.04799284
   4         0.11327127
   5         0.03162762
   6        -0.00048591
   7        -0.00798294
   8         0.38375426
   9         0.90572118
  10        -0.00922554
Sym=     5a  
Ene=    -0.3475
Spin= Beta
Occup=    1.00000
   1        -0.00008770
   2        -0.00170890
   3         0.04799284
   4         0.11327127
   5         0.03162762
   6        -0.00048591
   7        -0.00798294
   8         0.38375426
   9         0.90572118
  10        -0.00922554
Sym=     6a  
Ene=    -0.3958
Spin= Alpha
Occup=    1.00000
   1         0.01756532
   2         0.01153081
   3         0.00259773
   4         0.00611531
   5        -0.93874097
   6         0.01957138
   7         0.02421457
   8         0.01260754
   9         0.02975453
  10         0.22456587
Sym=     6a  
Ene=    -0.3958
Spin= Beta
Occup=    1.00000
   1         0.01756532
   2         0.01153081
   3         0.00259773
   4         0.00611531
   5        -0.93874097
   6         0.01957138
   7         0.02421457
   8         0.01260754
   9         0.02975453
  10         0.22456587
Sym=     7a  
Ene=    -0.0000
Spin= Alpha
Occup=    1.00000
   1         0.00000004
   2         0.00000055
   3        -0.06365550
   4         0.02697085
   5        -0.00000017
   6         0.00000000
   7         0.00000016
   8        -0.91433324
   9         0.38740322
  10         0.00000306
Sym=     7a  
Ene=    -0.0000
Spin= Beta
Occup=    0.00000
   1         0.00000004
   2         0.00000055
   3        -0.06365550
   4         0.02697085
   5        -0.00000017
   6         0.00000000
   7         0.00000016
   8        -0.91433324
   9         0.38740322
  10         0.00000306
Sym=     8a  
Ene=     0.0801
Spin= Alpha
Occup=    0.00000
   1         0.00001506
   2         0.00023748
   3        -0.38802717
   4        -0.91580548
   5        -0.00214429
   6         0.00003177
   7         0.00041046
   8         0.07376275
   9         0.17409175
  10         0.00134391
Sym=     8a  
Ene=     0.0801
Spin= Beta
Occup=    0.00000
   1         0.00001506
   2         0.00023748
   3        -0.38802717
   4        -0.91580548
   5        -0.00214429
   6         0.00003177
   7         0.00041046
   8         0.07376275
   9         0.17409175
  10         0.00134391
Sym=     9a  
Ene=     0.0842
Spin= Alpha
Occup=    0.00000
   1         0.00000004
   2         0.00000071
   3        -0.92060724
   4         0.39006170
   5        -0.00000494
   6         0.00000007
   7         0.00000091
   8         0.12475801
   9        -0.05286002
  10         0.00000354
Sym=     9a  
Ene=     0.0842
Spin= Beta
Occup=    0.00000
   1         0.00000004
   2         0.00000071
   3        -0.92060724
   4         0.39006170
   5        -0.00000494
   6         0.00000007
   7         0.00000091
   8         0.12475801
   9        -0.05286002
  10         0.00000354
Sym=    10a  
Ene=     0.2339
Spin= Alpha
Occup=    0.00000
   1        -0.01290994
   2        -0.22173908
   3        -0.00035801
   4        -0.00083902
   5        -0.41242734
   6         0.00736576
   7         0.11952403
   8        -0.00047595
   9        -0.00111709
  10        -1.00099522
Sym=    10a  
Ene=     0.2339
Spin= Beta
Occup=    0.00000
   1        -0.01290994
   2        -0.22173908
   3        -0.00035801
   4        -0.00083902
   5        -0.41242734
   6         0.00736576
   7         0.11952403
   8        -0.00047595
   9        -0.00111709
  10        -1.00099522
