[Molden Format]
[N_Atoms]
                     2
[Atoms] (AU)
C1          1      6           0.00000000      0.00000000      0.00000000
N2          2      7           0.00000000      0.00000000      4.15739747
[Charge] (Mulliken)
 -2.996602054934172E-002
  2.996602054926623E-002
[GTO] (AU)
   1
   s  14
  5.055750100E+04  1.128874000E-04
  7.524785600E+03  5.295373000E-04
  1.694327600E+03  2.450038300E-03
  4.728227900E+02  1.005398470E-02
  1.517107500E+02  3.545398060E-02
  5.391874600E+01  1.044071086E-01
  2.065931100E+01  2.412894918E-01
  8.383976000E+00  3.834225483E-01
  3.577015000E+00  3.078514393E-01
  1.547118000E+00  6.872442990E-02
  6.130130000E-01  2.224445000E-04
  2.460680000E-01  1.976748900E-03
  9.908700000E-02  2.057859400E-03
  3.468000000E-02  4.182020000E-04
   s  14
  5.055750100E+04 -2.507420000E-05
  7.524785600E+03 -1.175945000E-04
  1.694327600E+03 -5.456275000E-04
  4.728227900E+02 -2.245077100E-03
  1.517107500E+02 -8.043471800E-03
  5.391874600E+01 -2.442588710E-02
  2.065931100E+01 -6.136791180E-02
  8.383976000E+00 -1.177767835E-01
  3.577015000E+00 -1.550487783E-01
  1.547118000E+00 -1.933316860E-02
  6.130130000E-01  3.996930678E-01
  2.460680000E-01  5.589420949E-01
  9.908700000E-02  1.711195023E-01
  3.468000000E-02  7.456244600E-03
   p   9
  8.333315500E+01  1.344656000E-03
  1.955761100E+01  1.023555500E-02
  6.080365000E+00  4.520067100E-02
  2.179317000E+00  1.410756198E-01
  8.651500000E-01  3.047388085E-01
  3.619440000E-01  3.995281011E-01
  1.547400000E-01  2.719163432E-01
  6.542900000E-02  5.857669330E-02
  2.290000000E-02 -1.263813000E-04
 
   2
   s  14
  7.476171500E+04  1.182599996E-04
  1.112365400E+04  5.172899983E-04
  2.512685700E+03  2.266659992E-03
  7.037772900E+02  9.145289970E-03
  2.254787900E+02  3.239342989E-02
  7.961581000E+01  9.770792967E-02
  3.023728300E+01  2.317036792E-01
  1.226362200E+01  3.768898887E-01
  5.265086000E+00  3.177420689E-01
  2.333471000E+00  8.211308973E-02
  9.018560000E-01  3.312089989E-03
  3.583360000E-01  3.720819988E-03
  1.410930000E-01  3.165419989E-03
  4.938300000E-02  4.595799985E-04
   s  14
  7.476171500E+04 -2.707000010E-05
  1.112365400E+04 -1.183700004E-04
  2.512685700E+03 -5.203800020E-04
  7.037772900E+02 -2.102930008E-03
  2.254787900E+02 -7.568200028E-03
  7.961581000E+01 -2.346767009E-02
  3.023728300E+01 -6.042901023E-02
  1.226362200E+01 -1.170549104E-01
  5.265086000E+00 -1.555321506E-01
  2.333471000E+00 -2.468935009E-02
  9.018560000E-01  3.625054514E-01
  3.583360000E-01  5.550845021E-01
  1.410930000E-01  2.148376908E-01
  4.938300000E-02  8.983850034E-03
   p   9
  1.266665700E+02  1.233630000E-03
  2.983738900E+01  9.493409996E-03
  9.394038000E+00  4.293961998E-02
  3.405104000E+00  1.362925399E-01
  1.350000000E+00  2.921362499E-01
  5.576960000E-01  3.887887598E-01
  2.324490000E-01  2.946801399E-01
  9.426400000E-02  8.012875997E-02
  3.299200000E-02  5.405199998E-04
 
[MO]
Sym=     1a  
Ene=   -15.6420
Spin= Alpha
Occup=    1.00000
   1        -0.00006640
   2        -0.00071870
   3         0.00000000
   4        -0.00000000
   5        -0.00071582
   6         1.00001247
   7        -0.00223059
   8        -0.00000000
   9        -0.00000000
  10        -0.00025868
Sym=     1a  
Ene=   -15.5500
Spin= Beta
Occup=    1.00000
   1        -0.00003556
   2        -0.00026017
   3         0.00000000
   4        -0.00000000
   5        -0.00018363
   6         0.99996402
   7        -0.00894329
   8         0.00000000
   9         0.00000000
  10        -0.00012057
Sym=     2a  
Ene=   -11.1990
Spin= Alpha
Occup=    1.00000
   1         0.99999083
   2        -0.00476124
   3         0.00000000
   4         0.00000000
   5         0.00023548
   6        -0.00003991
   7        -0.00027117
   8        -0.00000000
   9        -0.00000000
  10         0.00008116
Sym=     2a  
Ene=   -11.2450
Spin= Beta
Occup=    1.00000
   1         1.00001061
   2         0.00025164
   3         0.00000000
   4         0.00000000
   5         0.00067531
   6        -0.00007460
   7        -0.00071114
   8         0.00000000
   9         0.00000000
  10         0.00060069
Sym=     3a  
Ene=    -1.1603
Spin= Alpha
Occup=    1.00000
   1         0.00446787
   2        -0.02489649
   3        -0.00000000
   4         0.00000000
   5        -0.01151016
   6        -0.00210660
   7        -0.99491376
   8         0.00000000
   9        -0.00000000
  10         0.01224419
Sym=     3a  
Ene=    -0.8217
Spin= Beta
Occup=    1.00000
   1        -0.00282916
   2         0.80049206
   3        -0.00000000
   4        -0.00000000
   5         0.07707827
   6        -0.00100156
   7         0.49558205
   8         0.00000000
   9        -0.00000000
  10        -0.03627813
Sym=     4a  
Ene=    -0.6251
Spin= Alpha
Occup=    1.00000
   1        -0.00570995
   2         0.55055627
   3        -0.00000000
   4        -0.00000000
   5         0.01500063
   6        -0.00362337
   7        -0.08886042
   8         0.00000000
   9         0.00000000
  10        -0.75592365
Sym=     4a  
Ene=    -0.7073
Spin= Beta
Occup=    1.00000
   1         0.00393293
   2         0.59910900
   3         0.00000000
   4         0.00000000
   5        -0.01155716
   6        -0.01091024
   7        -0.86395938
   8        -0.00000000
   9        -0.00000000
  10        -0.00180874
Sym=     5a  
Ene=    -0.5760
Spin= Alpha
Occup=    1.00000
   1        -0.00000000
   2        -0.00000000
   3         0.01855895
   4         0.00188086
   5         0.00000000
   6         0.00000000
   7         0.00000000
   8         0.99349684
   9         0.10068590
  10         0.00000000
Sym=     5a  
Ene=    -0.3995
Spin= Beta
Occup=    1.00000
   1         0.00000000
   2         0.00000000
   3        -0.13920309
   4         0.98598125
   5        -0.00000000
   6         0.00000000
   7         0.00000000
   8        -0.00658746
   9         0.04665923
  10         0.00000000
Sym=     6a  
Ene=    -0.5760
Spin= Alpha
Occup=    1.00000
   1         0.00000000
   2         0.00000000
   3        -0.00188086
   4         0.01855895
   5        -0.00000000
   6        -0.00000000
   7        -0.00000000
   8        -0.10068590
   9         0.99349684
  10         0.00000000
Sym=     6a  
Ene=    -0.3995
Spin= Beta
Occup=    1.00000
   1        -0.00000000
   2        -0.00000000
   3        -0.98598125
   4        -0.13920309
   5         0.00000000
   6        -0.00000000
   7        -0.00000000
   8        -0.04665923
   9        -0.00658746
  10        -0.00000000
Sym=     7a  
Ene=    -0.4983
Spin= Alpha
Occup=    1.00000
   1        -0.01166005
   2        -0.83911350
   3         0.00000000
   4         0.00000000
   5         0.15864897
   6         0.00270389
   7         0.07021447
   8        -0.00000000
   9         0.00000000
  10        -0.62981865
Sym=     7a  
Ene=     0.0828
Spin= Beta
Occup=    0.00000
   1         0.00511225
   2         0.12350917
   3        -0.00000000
   4        -0.00000000
   5        -0.80894030
   6         0.01217270
   7         0.18519780
   8        -0.00000000
   9        -0.00000000
  10         0.47309693
Sym=     8a  
Ene=     0.2186
Spin= Alpha
Occup=    0.00000
   1         0.00504886
   2         0.17029228
   3         0.00000000
   4         0.00000000
   5         1.02055590
   6        -0.01619925
   7        -0.20389296
   8        -0.00000000
   9        -0.00000000
  10         0.30217943
Sym=     8a  
Ene=     0.2266
Spin= Beta
Occup=    0.00000
   1        -0.00000000
   2        -0.00000000
   3        -0.00473400
   4         0.11351800
   5         0.00000000
   6        -0.00000000
   7        -0.00000000
   8         0.04171275
   9        -1.00024239
  10        -0.00000000
Sym=     9a  
Ene=     0.2406
Spin= Alpha
Occup=    0.00000
   1         0.00000000
   2         0.00000000
   3        -0.82150753
   4         0.57377929
   5         0.00000000
   6        -0.00000000
   7        -0.00000000
   8         0.06991014
   9        -0.04882851
  10         0.00000000
Sym=     9a  
Ene=     0.2266
Spin= Beta
Occup=    0.00000
   1        -0.00000000
   2        -0.00000000
   3         0.11351800
   4         0.00473400
   5         0.00000000
   6         0.00000000
   7         0.00000000
   8        -1.00024239
   9        -0.04171275
  10        -0.00000000
Sym=    10a  
Ene=     0.2406
Spin= Alpha
Occup=    0.00000
   1        -0.00000000
   2        -0.00000000
   3         0.57377929
   4         0.82150753
   5        -0.00000000
   6         0.00000000
   7         0.00000000
   8        -0.04882851
   9        -0.06991014
  10        -0.00000000
Sym=    10a  
Ene=     0.3139
Spin= Beta
Occup=    0.00000
   1         0.01117367
   2         0.14796074
   3         0.00000000
   4         0.00000000
   5         0.63765382
   6        -0.01076985
   7        -0.13360738
   8        -0.00000000
   9        -0.00000000
  10         0.91346266
