   This run of MOLCAS is using the pymolcas driver

                             OPE
                             OPE          NMOL  CASOP  ENMOLC A   SO
                 OPE        NMOLC        AS  OP EN  MO LC     AS  OP
                OPENM       OL CA        SO  PE NM  OL CA     SOP EN
                OP EN      MO   LC       AS  OP ENMOL  CASO   PENMOL
                OP  EN     MO   LC       AS  OP EN     MO     LC ASO
               OP   E  NMOL  C  AS       OP  EN MO     LC     AS  OP
               OP  E   NMO   LC AS        OPEN  MO     LCASOP EN   M
               O  PEN   MO  LCA  SO
            OPE   NMO   L   CAS    OP
        OPENMOL  CASOP     ENMOL   CASOPE
     OPENMOLCA   SOPENMOLCASOPEN   MOLCASOPE
    OPENMOLCAS   OP           EN   MOL    CAS
    OPENMOLCAS       OP  ENM        O     LCA
    OPENMOLCAS    OPEN  MOLCASO     P  E  NMO
    OPENMOLCAS     OP               E  N  MOL
    OPENMOLCA   SO           PENM   O  L  CAS    OPEN    MO    LCAS
    OPENMOLCA   SOP           ENM   O  L  CAS   OP  EN  MOLC  AS   O
    OPENMOLCA   SOPE           NM      O  LCA   S      OP  EN MO
    OPENMOLC                AS         O  PEN   M      OL  CA  SOPE
    OPENMO        LCASOPE  NMOL        C  ASO   P      ENMOLC     AS
    OPE     NMO      LCA  SO     P     E   NM   OL  CA SO  PE N   MO
          OPENMOLCA            SOPE   NMO        LCAS  O    P  ENMO
     OPENMOLCASOPENMOLCASOPENMOLCASOPENMOLCA
        OPENMOLCASOPENMOLCASOPENMOLCASOPE
            OPENMOLCASOPENMOLCASOPENM
               OPENMOLCASOPENMOLCA        version: 1d1d16313-dirty
                   OPENMOLCASO
                       OPE                tag:

 OpenMolcas is free software; you can redistribute it and/or modify it
 under the terms of the GNU Lesser General Public License version 2.1.
 OpenMolcas is distributed in the hope that it will be useful, but it
 is provided "as is" and without any express or implied warranties.
 For more details see the full text of the license in the file
 LICENSE or in <http://www.gnu.org/licenses/>.

                 Copyright (C) The OpenMolcas Authors
           For the author list and the recommended citation,
                   consult the file CONTRIBUTORS.md

           *************************************************
           * pymolcas version py2.28                       *
           *   build c4a6d18ded8cb6cad61d2372a9abd97c      *
           *   (after the EMIL interpreter by V. Veryazov) *
           *************************************************

configuration info
------------------
C Compiler ID: IntelLLVM
C flags: -std=gnu99
Fortran Compiler ID: IntelLLVM
Fortran flags: -standard-semantics -fltconsistency -fpp -i8 -heap-arrays
Definitions: _MOLCAS_;_I8_;_LINUX_
Parallel: OFF (GA=OFF)


   --------------------------------------------------------------------------------
  |
  |              Project: ozone_118.25
  |       Submitted from: /home/grierjones/DDCASPT2/ozone/ANO-RCC-VDZP/ozone_118.25
  |         Scratch area: /tmp/ozone_118.25
  |      Save outputs to: /home/grierjones/DDCASPT2/ozone/ANO-RCC-VDZP/ozone_118.25
  |               Molcas: /home/grierjones/Test/build
  |
  | Scratch area is empty
  |
  |       MOLCAS_DRIVER = /usr/local/pymolcas
  | MOLCAS_KEEP_WORKDIR = NO
  |  MOLCAS_NEW_WORKDIR = YES
  |       MOLCAS_NPROCS = 1
  |        MOLCAS_PRINT = NORMAL
  |       MOLCAS_SOURCE = /home/grierjones/Test
  |    MOLCAS_STRUCTURE = 0
  |
   --------------------------------------------------------------------------------

++ ---------   Input file   ---------

&GATEWAY
coord=ozone_118.25.xyz
Basis = ANO-RCC-VDZP
Group = nosymm
Expert
End of Input

&SEWARD
End of Input

&SCF

>>> COPY $WorkDir/ozone_118.25.scf.h5 $CurrDir/

&RASSCF
Title= RASSCF
FileOrb
/home/grierjones/DDCASPT2/ozone/ANO-RCC-VDZP/ozone_118.00/ozone_118.00.RasOrb
NACTEL
4 0 0
Inactive
10
RAS2
3
Symmetry
1
Spin
1
orblisting
all
ITERation
300 200

>>> COPY $WorkDir/ozone_118.25.rasscf.h5 $CurrDir/

>>> COPY $WorkDir/GMJ_Fock_MO.csv $CurrDir/ozone_118.25.GMJ_Fock_MO.csv

>>> COPY $WorkDir/GMJ_PT2_Fock_MO.csv $CurrDir/ozone_118.25.GMJ_PT2_Fock_MO.csv

&MOTRA
Frozen=0
LUMORB

>>> COPY $WorkDir/GMJ_one_int_indx.csv $CurrDir/ozone_118.25.GMJ_one_int_indx.csv

>>> COPY $WorkDir/GMJ_one_int.csv $CurrDir/ozone_118.25.GMJ_one_int.csv

>>> COPY $WorkDir/GMJ_two_int_indx.csv $CurrDir/ozone_118.25.GMJ_two_int_indx.csv

>>> COPY $WorkDir/GMJ_two_int.csv $CurrDir/ozone_118.25.GMJ_two_int.csv

&CASPT2
Frozen
0
MAXITER
50

>>> FOREACH i IN (B,E,F,G,H)

  >>> FOREACH j IN (P,M)

    >>> IF (-FILE GMJ_e2_${i}_${j}.csv)

      >>> COPY $WorkDir/GMJ_RHS_${i}_${j}.csv $CurrDir/GMJ_RHS_${i}_${j}.csv

      >>> COPY $WorkDir/GMJ_IVECW_${i}_${j}.csv $CurrDir/GMJ_IVECW_${i}_${j}.csv

      >>> COPY $WorkDir/GMJ_IVECX_${i}_${j}.csv $CurrDir/GMJ_IVECX_${i}_${j}.csv

      >>> COPY $WorkDir/GMJ_IVECC2_${i}_${j}.csv $CurrDir/GMJ_IVECC2_${i}_${j}.csv

      >>> COPY $WorkDir/GMJ_e2_${i}_${j}.csv $CurrDir/GMJ_e2_${i}_${j}.csv

    >>> END IF

  >>> END FOREACH

>>> END FOREACH

>>> FOREACH i IN (A,C,D)

  >>> IF (-FILE GMJ_e2_$i.csv)

    >>> COPY $WorkDir/GMJ_RHS_$i.csv $CurrDir/GMJ_RHS_$i.csv

    >>> COPY $WorkDir/GMJ_IVECW_$i.csv $CurrDir/GMJ_IVECW_$i.csv

    >>> COPY $WorkDir/GMJ_IVECX_$i.csv $CurrDir/GMJ_IVECX_$i.csv

    >>> COPY $WorkDir/GMJ_IVECC2_$i.csv $CurrDir/GMJ_IVECC2_$i.csv

    >>> COPY $WorkDir/GMJ_e2_$i.csv $CurrDir/GMJ_e2_$i.csv

  >>> END IF

>>> END FOREACH

-- ----------------------------------

--- Start Module: gateway at Fri Jan 24 15:01:18 2025 ---
 
()()()()()()()()()()()()()()()()()()()()()()()()()()()()()()()()()()()()()()()()()()()()()()()()()()

                                              &GATEWAY

                                   only a single process is used
                       available to each process: 2.0 GB of memory, 1 thread?
()()()()()()()()()()()()()()()()()()()()()()()()()()()()()()()()()()()()()()()()()()()()()()()()()()
 
 ###############################################################################
 ###############################################################################
 ###                                                                         ###
 ###                                                                         ###
 ###                                                                         ###
 ###    WARNING: EXPERT option is ON!                                        ###
 ###                                                                         ###
 ###                                                                         ###
 ###############################################################################
 ###############################################################################
 
++    Symmetry information:
      ---------------------
 
                    Character Table for C1 
 
                             E  
                    a        1  x, y, xy, Rz, z, xz, Ry, yz, Rx, I
--
 
 
++    Basis set information:
      ----------------------
 
 
      Basis set label: O.ANO-RCC...3S2P1D.
 
      Electronic valence basis set:
      ------------------
      Associated Effective Charge   8.000000 au
      Associated Actual Charge      8.000000 au
      Nuclear Model: Point charge
 
      Shell  nPrim  nBasis  Cartesian Spherical Contaminant
         s      14       3        X                  
         p       9       2        X                  
         d       4       1                 X         
--
 
 
++    Molecular structure info:
      -------------------------
 
                    ************************************************ 
                    **** Cartesian Coordinates / Bohr, Angstrom **** 
                    ************************************************ 
 
     Center  Label                x              y              z                     x              y              z
        1      O1               1.239333       2.072827       0.000000              0.655827       1.096893       0.000000
        2      O2               0.000000       0.000000       0.000000              0.000000       0.000000       0.000000
        3      O3               1.239333      -2.072827       0.000000              0.655827      -1.096893       0.000000
 
                    *************************************** 
                    *    InterNuclear Distances / Bohr    * 
                    *************************************** 
 
               1 O1            2 O2            3 O3    
    1 O1       0.000000
    2 O2       2.415069        0.000000
    3 O3       4.145655        2.415069        0.000000
 
                    ******************************************* 
                    *    InterNuclear Distances / Angstrom    * 
                    ******************************************* 
 
               1 O1            2 O2            3 O3    
    1 O1       0.000000
    2 O2       1.278000        0.000000
    3 O3       2.193786        1.278000        0.000000
 
                    ************************************** 
                    *    Valence Bond Angles / Degree    * 
                    ************************************** 
                          Atom centers                 Phi
                      1 O1       2 O2       3 O3       118.25
--
 
 
            Nuclear Potential Energy             68.43839668 au
 
 ###############################################################################
 ###############################################################################
 ###                                                                         ###
 ###                                                                         ###
 ###    There were warnings during the execution                             ###
 ###    Please, check the output with care!                                  ###
 ###                                                                         ###
 ###                                                                         ###
 ###############################################################################
 ###############################################################################
--- Stop Module: gateway at Fri Jan 24 15:01:18 2025 /rc=_RC_ALL_IS_WELL_ ---
*** files: xmldump
    saved to directory /home/grierjones/DDCASPT2/ozone/ANO-RCC-VDZP/ozone_118.25

--- Start Module: seward at Fri Jan 24 15:01:18 2025 ---
 
()()()()()()()()()()()()()()()()()()()()()()()()()()()()()()()()()()()()()()()()()()()()()()()()()()

                                              &SEWARD

                                   only a single process is used
                       available to each process: 2.0 GB of memory, 1 thread?
()()()()()()()()()()()()()()()()()()()()()()()()()()()()()()()()()()()()()()()()()()()()()()()()()()
 
 ###############################################################################
 ###############################################################################
 ###                                                                         ###
 ###                                                                         ###
 ###                                                                         ###
 ###    WARNING: EXPERT option is ON!                                        ###
 ###                                                                         ###
 ###                                                                         ###
 ###############################################################################
 ###############################################################################
               SEWARD will generate:
                  Multipole Moment integrals up to order  2
                  Kinetic Energy integrals
                  Nuclear Attraction integrals (point charge)
                  One-Electron Hamiltonian integrals
                  Velocity integrals
                  Relativistic Douglas-Kroll-Hess integrals:
                    - Parametrization         : EXP
                    - DKH order of Hamiltonian: 2
                    - DKH order of Properties : 0
                         - multipole moment operators
                         - electric potential operators
                         - contact operators
                  Atomic mean-field integrals
                  Two-Electron Repulsion integrals
 
                   Integrals are discarded if absolute value <: 0.10E-13
                   Integral cutoff threshold is set to       <: 0.10E-15
 
            Nuclear Potential Energy             68.43839668 au
 
 
      Basis set specifications :
      Symmetry species         a  
      Basis functions           42
 
 
  Input file to MOLDEN was generated!
 
 ###############################################################################
 ###############################################################################
 ###                                                                         ###
 ###                                                                         ###
 ###    There were warnings during the execution                             ###
 ###    Please, check the output with care!                                  ###
 ###                                                                         ###
 ###                                                                         ###
 ###############################################################################
 ###############################################################################
forrtl: warning (525): IEEE_DIVIDE_BY_ZERO is signaling
forrtl: warning (526): IEEE_INVALID is signaling
forrtl: warning (528): IEEE_UNDERFLOW is signaling
--- Stop Module: seward at Fri Jan 24 15:01:19 2025 /rc=_RC_ALL_IS_WELL_ ---
*** files: ozone_118.25.GssOrb ozone_118.25.guessorb.h5 ozone_118.25.guessorb.molden xmldump
    saved to directory /home/grierjones/DDCASPT2/ozone/ANO-RCC-VDZP/ozone_118.25
--- Module seward spent 1 second ---

*** symbolic link created: INPORB -> ozone_118.25.GssOrb
--- Start Module: scf at Fri Jan 24 15:01:19 2025 ---
 
()()()()()()()()()()()()()()()()()()()()()()()()()()()()()()()()()()()()()()()()()()()()()()()()()()

                                                &SCF

                                   only a single process is used
                       available to each process: 2.0 GB of memory, 1 thread?
()()()()()()()()()()()()()()()()()()()()()()()()()()()()()()()()()()()()()()()()()()()()()()()()()()
 
++    Input section:
      --------------
 
      Header of the integral files:
      
       Integrals generated by seward 4.2.0  , Fri Jan 24 15:01:18 2025
 
 
      Cartesian coordinates in Angstrom:
      -----------------------------------------------------
      No.  Label        X            Y            Z        
      -----------------------------------------------------
       1   O1         0.65582700   1.09689300   0.00000000
       2   O2         0.00000000   0.00000000   0.00000000
       3   O3         0.65582700  -1.09689300   0.00000000
      -----------------------------------------------------
      Nuclear repulsion energy =   68.43839668
--
 
++    Orbital specifications:
      -----------------------
 
      Symmetry species               1
                                     a
      Frozen orbitals                0
      Occupied orbitals             12
      Secondary orbitals            30
      Deleted orbitals               0
      Total number of orbitals      42
      Number of basis functions     42
--
 
      Molecular charge                           0.000
 
++    Optimization specifications:
      ----------------------------
 
      SCF Algorithm: Conventional
      Minimized density differences are used
      Number of density matrices in core                5
      Maximum number of NDDO SCF iterations           400
      Maximum number of HF SCF iterations             400
      Threshold for SCF energy change            0.10E-08
      Threshold for density matrix               0.10E-03
      Threshold for Fock matrix                  0.15E-03
      Threshold for linear dependence            0.10E-08
      Threshold at which DIIS is turned on       0.15E+00
      Threshold at which QNR/C2DIIS is turned on 0.75E-01
      Threshold for Norm(delta) (QNR/C2DIIS)     0.20E-04
      DIIS extrapolation of the SCF procedure
      All orbitals punched on: SCFORB
--
 
      Input vectors read from INPORB
      Orbital file label: *Guess orbitals
 
 
++ Convergence information
                                   SCF        iterations: Energy and convergence statistics
 
Iter     Tot. SCF        One-elec.       Two-elec.     Energy      Max Dij or  Max Fij      DNorm      TNorm      AccCon     Time
         Energy          Energy          Energy        Change      Delta Norm                                                in Sec.
   1  -223.887786755  -440.548663097   148.222479661   0.00E+00    0.65E+00*   0.27E+00*    0.74E+01   0.76E+02   None         0.
   2  -224.104407526  -446.630238144   154.087433938  -0.22E+00*   0.23E+00*   0.18E+00*    0.26E+01   0.78E+02   EDIIS        0.
   3  -224.452855454  -444.219648391   151.328396257  -0.35E+00*   0.23E+00*   0.87E-01*    0.74E+00   0.77E+02   EDIIS        0.
   4  -224.453103618  -444.775104495   151.883604197  -0.25E-03*   0.16E-01*   0.45E-01*    0.24E+00   0.77E+02   EDIIS        0.
   5  -224.491031810  -444.446188091   151.516759600  -0.38E-01*   0.74E-02*   0.30E-02*    0.38E-01   0.77E+02   c2DIIS       0.
   6  -224.491156914  -444.473162895   151.543609301  -0.13E-03*   0.29E-02*   0.14E-02*    0.72E-02   0.77E+02   QNRc2DIIS    0.
   7  -224.491181739  -444.468659163   151.539080743  -0.25E-04*   0.41E-02*   0.91E-03*    0.36E-02   0.77E+02   QNRc2DIIS    0.
   8  -224.491191876  -444.469043856   151.539455300  -0.10E-04*   0.90E-03*   0.55E-03*    0.22E-02   0.77E+02   QNRc2DIIS    0.
   9  -224.491193798  -444.473257813   151.543667335  -0.19E-05*   0.58E-03*   0.33E-03*    0.39E-03   0.77E+02   QNRc2DIIS    0.
  10  -224.491194394  -444.469067902   151.539476828  -0.60E-06*   0.89E-04*   0.56E-04     0.46E-03   0.77E+02   QNRc2DIIS    0.
  11  -224.491194419  -444.470634195   151.541043096  -0.25E-07*   0.24E-04*   0.10E-04     0.77E-04   0.77E+02   QNRc2DIIS    0.
  12  -224.491194420  -444.470588147   151.540997046  -0.14E-08*   0.80E-05    0.32E-05     0.14E-04   0.77E+02   QNRc2DIIS    0.
  13  -224.491194420  -444.470538854   151.540947753  -0.12E-09    0.89E-06    0.38E-06     0.68E-03   0.77E+02   QNRc2DIIS    0.
 
       Convergence after 13 Macro Iterations
--
 
 *****************************************************************************************************************************
 *                                                                                                                           *
 *                                             SCF/KS-DFT Program, Final results                                             *
 *                                                                                                                           *
 *                                                                                                                           *
 *                                                                                                                           *
 *                                                       Final Results                                                       *
 *                                                                                                                           *
 *****************************************************************************************************************************
 
::    Total SCF energy                               -224.4911944204
      One-electron energy                            -444.4705388539
      Two-electron energy                             151.5409477530
      Nuclear repulsion energy                         68.4383966805
      Kinetic energy (interpolated)                   225.3917149012
      Virial theorem                                    0.9960046425
      Total spin, S(S+1)                                0.0000000000
      Total spin, S                                     0.0000000000
      Max non-diagonal density matrix element           0.0000010541
      Max non-diagonal Fock matrix element              0.0000001069
 
 
      All orbitals with orbital energies smaller than  E(LUMO)+0.5 are printed
 
++    Molecular orbitals:
      -------------------
 
      Title: SCF orbitals

      Molecular orbitals for symmetry species 1: a  
 
          Orbital            1         2         3         4         5         6         7         8         9        10    
          Energy          -20.9184  -20.7212  -20.7212   -1.7538   -1.4397   -1.1004   -0.8357   -0.8048   -0.7829   -0.5703
          Occ. No.          2.0000    2.0000    2.0000    2.0000    2.0000    2.0000    2.0000    2.0000    2.0000    2.0000
 
        1 O1     1s         0.0018   -0.7072    0.7072   -0.0155    0.0103    0.0090   -0.0131   -0.0195    0.0000    0.0035
        2 O1     2s        -0.0002   -0.0005    0.0005    0.3171   -0.5804    0.5864   -0.2710   -0.4052    0.0000    0.0324
        3 O1     3s        -0.0002    0.0001   -0.0001   -0.0235    0.0125    0.0116   -0.0261   -0.0286    0.0000    0.0054
        4 O1     2px        0.0001    0.0005   -0.0004   -0.0516    0.0641    0.1048    0.1397   -0.3349    0.0000   -0.5347
        5 O1     3px        0.0003   -0.0001    0.0003    0.0138   -0.0095   -0.0172   -0.0116    0.0232    0.0000   -0.0152
        6 O1     2py        0.0001    0.0007   -0.0008   -0.1012    0.0699    0.0860   -0.3481   -0.2695   -0.0000    0.5027
        7 O1     3py        0.0002   -0.0005    0.0003    0.0253   -0.0129   -0.0125    0.0346    0.0215    0.0000    0.0038
        8 O1     2pz       -0.0000    0.0000    0.0000   -0.0000   -0.0000   -0.0000   -0.0000    0.0000    0.3671    0.0000
        9 O1     3pz        0.0000    0.0000    0.0000    0.0000    0.0000   -0.0000    0.0000   -0.0000   -0.0253   -0.0000
       10 O1     3d2-      -0.0001    0.0001   -0.0001    0.0163   -0.0135   -0.0110    0.0064    0.0287   -0.0000   -0.0012
       11 O1     3d1-      -0.0000    0.0000    0.0000    0.0000    0.0000    0.0000    0.0000   -0.0000   -0.0259    0.0000
       12 O1     3d0        0.0001    0.0001   -0.0001   -0.0097    0.0086    0.0034   -0.0097   -0.0158    0.0000    0.0042
       13 O1     3d1+      -0.0000    0.0000    0.0000   -0.0000   -0.0000    0.0000    0.0000    0.0000   -0.0158    0.0000
       14 O1     3d2+       0.0001   -0.0001    0.0000   -0.0108    0.0045    0.0014   -0.0247   -0.0058   -0.0000    0.0184
       15 O2     1s         1.0001    0.0000   -0.0028   -0.0212   -0.0000   -0.0164   -0.0072   -0.0000   -0.0000    0.0000
       16 O2     2s         0.0007    0.0000   -0.0007    0.6548    0.0000   -0.6632   -0.0842   -0.0000   -0.0000    0.0000
       17 O2     3s        -0.0001    0.0000   -0.0006   -0.0427   -0.0000   -0.0058   -0.0123   -0.0000   -0.0000    0.0000
       18 O2     2px        0.0010    0.0000   -0.0004    0.1196    0.0000    0.2468    0.6729   -0.0000    0.0000   -0.0000
       19 O2     3px       -0.0008    0.0000   -0.0005   -0.0266   -0.0000   -0.0283   -0.0551    0.0000   -0.0000   -0.0000
       20 O2     2py        0.0000    0.0006    0.0000    0.0000   -0.3292   -0.0000    0.0000    0.5453   -0.0000   -0.1329
       21 O2     3py        0.0000    0.0008    0.0000    0.0000    0.0717    0.0000   -0.0000   -0.0730    0.0000    0.0051
       22 O2     2pz       -0.0000   -0.0000    0.0000   -0.0000   -0.0000   -0.0000   -0.0000    0.0000    0.7060   -0.0000
       23 O2     3pz       -0.0000   -0.0000   -0.0000   -0.0000    0.0000   -0.0000   -0.0000   -0.0000   -0.0272   -0.0000
       24 O2     3d2-      -0.0000    0.0003    0.0000    0.0000   -0.0399   -0.0000    0.0000    0.0278   -0.0000   -0.0362
       25 O2     3d1-      -0.0000    0.0000    0.0000   -0.0000    0.0000   -0.0000   -0.0000   -0.0000   -0.0000    0.0000
       26 O2     3d0       -0.0003   -0.0000    0.0003   -0.0181   -0.0000   -0.0068   -0.0159    0.0000   -0.0000    0.0000
       27 O2     3d1+      -0.0000    0.0000    0.0000   -0.0000   -0.0000    0.0000   -0.0000    0.0000    0.0339    0.0000
       28 O2     3d2+      -0.0000   -0.0000    0.0001   -0.0113   -0.0000    0.0024    0.0234   -0.0000    0.0000    0.0000
       29 O3     1s         0.0018    0.7072    0.7072   -0.0155   -0.0103    0.0090   -0.0131    0.0195   -0.0000   -0.0035
       30 O3     2s        -0.0002    0.0005    0.0005    0.3171    0.5804    0.5864   -0.2710    0.4052   -0.0000   -0.0324
       31 O3     3s        -0.0002   -0.0001   -0.0001   -0.0235   -0.0125    0.0116   -0.0261    0.0286   -0.0000   -0.0054
       32 O3     2px        0.0001   -0.0005   -0.0004   -0.0516   -0.0641    0.1048    0.1397    0.3349   -0.0000    0.5347
       33 O3     3px        0.0003    0.0001    0.0003    0.0138    0.0095   -0.0172   -0.0116   -0.0232   -0.0000    0.0152
       34 O3     2py       -0.0001    0.0007    0.0008    0.1012    0.0699   -0.0860    0.3481   -0.2695    0.0000    0.5027
       35 O3     3py       -0.0002   -0.0005   -0.0003   -0.0253   -0.0129    0.0125   -0.0346    0.0215   -0.0000    0.0038
       36 O3     2pz        0.0000   -0.0000   -0.0000   -0.0000    0.0000   -0.0000   -0.0000    0.0000    0.3671   -0.0000
       37 O3     3pz        0.0000   -0.0000   -0.0000   -0.0000    0.0000    0.0000    0.0000   -0.0000   -0.0253    0.0000
       38 O3     3d2-       0.0001    0.0001    0.0001   -0.0163   -0.0135    0.0110   -0.0064    0.0287   -0.0000   -0.0012
       39 O3     3d1-       0.0000    0.0000   -0.0000   -0.0000    0.0000    0.0000   -0.0000    0.0000    0.0259   -0.0000
       40 O3     3d0        0.0001   -0.0001   -0.0001   -0.0097   -0.0086    0.0034   -0.0097    0.0158   -0.0000   -0.0042
       41 O3     3d1+      -0.0000   -0.0000   -0.0000   -0.0000   -0.0000   -0.0000    0.0000   -0.0000   -0.0158    0.0000
       42 O3     3d2+       0.0001    0.0001    0.0000   -0.0108   -0.0045    0.0014   -0.0247    0.0058   -0.0000   -0.0184
 
          Orbital           11        12        13        14        15    
          Energy           -0.5548   -0.4912   -0.0536    0.2494    0.2759
          Occ. No.          2.0000    2.0000    0.0000    0.0000    0.0000
 
        1 O1     1s         0.0062   -0.0000    0.0000   -0.0604   -0.1281
        2 O1     2s         0.0441    0.0000   -0.0000   -0.5427   -0.9875
        3 O1     3s         0.0214   -0.0000    0.0000   -0.1436   -0.3153
        4 O1     2px        0.6483   -0.0000    0.0000    0.2522    0.5068
        5 O1     3px        0.0085   -0.0000    0.0000    0.1599    0.3047
        6 O1     2py       -0.1302    0.0000   -0.0000    0.7637    0.4845
        7 O1     3py       -0.0244   -0.0000    0.0000    0.3647    0.4538
        8 O1     2pz       -0.0000   -0.7163    0.6588   -0.0000    0.0000
        9 O1     3pz        0.0000   -0.0479    0.1279   -0.0000    0.0000
       10 O1     3d2-      -0.0144    0.0000   -0.0000    0.0025   -0.0178
       11 O1     3d1-       0.0000    0.0213    0.0065   -0.0000    0.0000
       12 O1     3d0        0.0052    0.0000   -0.0000    0.0022    0.0104
       13 O1     3d1+      -0.0000    0.0131    0.0052    0.0000    0.0000
       14 O1     3d2+      -0.0015   -0.0000   -0.0000   -0.0060    0.0124
       15 O2     1s         0.0169   -0.0000    0.0000    0.1713    0.0000
       16 O2     2s         0.2247   -0.0000    0.0000    1.3838    0.0000
       17 O2     3s         0.0288    0.0000    0.0000    0.3595    0.0000
       18 O2     2px       -0.4952    0.0000   -0.0000    0.7178    0.0000
       19 O2     3px       -0.0144    0.0000   -0.0000    0.3853    0.0000
       20 O2     2py        0.0000   -0.0000    0.0000   -0.0000    1.2460
       21 O2     3py        0.0000   -0.0000   -0.0000   -0.0000    0.8321
       22 O2     2pz        0.0000   -0.0000   -0.8364    0.0000   -0.0000
       23 O2     3pz        0.0000   -0.0000   -0.1374   -0.0000   -0.0000
       24 O2     3d2-       0.0000   -0.0000    0.0000   -0.0000    0.0278
       25 O2     3d1-      -0.0000   -0.0503    0.0000    0.0000   -0.0000
       26 O2     3d0        0.0186   -0.0000    0.0000    0.0101    0.0000
       27 O2     3d1+       0.0000   -0.0000    0.0046    0.0000    0.0000
       28 O2     3d2+       0.0356   -0.0000    0.0000    0.0098    0.0000
       29 O3     1s         0.0062   -0.0000    0.0000   -0.0604    0.1281
       30 O3     2s         0.0441   -0.0000    0.0000   -0.5427    0.9875
       31 O3     3s         0.0214   -0.0000    0.0000   -0.1436    0.3153
       32 O3     2px        0.6483   -0.0000    0.0000    0.2522   -0.5068
       33 O3     3px        0.0085    0.0000    0.0000    0.1599   -0.3047
       34 O3     2py        0.1302    0.0000   -0.0000   -0.7637    0.4845
       35 O3     3py        0.0244   -0.0000   -0.0000   -0.3647    0.4538
       36 O3     2pz        0.0000    0.7163    0.6588    0.0000   -0.0000
       37 O3     3pz       -0.0000    0.0479    0.1279   -0.0000   -0.0000
       38 O3     3d2-       0.0144   -0.0000    0.0000   -0.0025   -0.0178
       39 O3     3d1-       0.0000    0.0213   -0.0065    0.0000    0.0000
       40 O3     3d0        0.0052    0.0000    0.0000    0.0022   -0.0104
       41 O3     3d1+      -0.0000   -0.0131    0.0052   -0.0000    0.0000
       42 O3     3d2+      -0.0015    0.0000    0.0000   -0.0060   -0.0124
--
 
 
++    Molecular charges:
      ------------------
 
      Mulliken charges per centre and basis function type
      ---------------------------------------------------
 
                O1      O2      O3    
      1s       2.0003  2.0003  2.0003
      2s       1.9226  1.7711  1.9226
      2px      1.7179  1.5641  1.7179
      2pz      1.3731  1.2173  1.3731
      2py      1.1346  1.0325  1.1346
      3s      -0.0071 -0.0122 -0.0071
      3px     -0.0145 -0.0206 -0.0145
      3pz     -0.0155 -0.0085 -0.0155
      3py     -0.0017  0.0153 -0.0017
      3d2+     0.0103  0.0354  0.0103
      3d1+     0.0040  0.0093  0.0040
      3d0      0.0055  0.0079  0.0055
      3d1-     0.0101  0.0388  0.0101
      3d2-     0.0161  0.0383  0.0161
      Total    8.1555  7.6891  8.1555
 
      N-E     -0.1555  0.3109 -0.1555
 
      Total electronic charge=   24.000000
 
      Total            charge=   -0.000000
--
 
 
  Input file to MOLDEN was generated!
 
 
++    Static properties:
      ------------------
 
 
      LoProp Charges per center
 

                   O1       O2       O3    
      Nuclear      8.0000   8.0000   8.0000
      Electronic  -8.2034  -7.5932  -8.2034
 
      Total       -0.2034   0.4068  -0.2034
--
 
 
++    Natural Bond Order analysis
      ---------------------------
      Based on LoProp computed density
      -------------------------------------------------------------------------------------
      Atom A       Atom B       Bond Order | Atom A       Atom B       Bond Order
        O1           O2             2.000  |   O2           O3             2.000
      -------------------------------------------------------------------------------------
      NBO located     12.000 core electrons.
      NBO located      3.956 lone pair electrons.
      NBO located      8.000 electrons involved in    2 bonds.
      The remaining    0.044 electrons are to be considered as diffuse
--
 
 
++    Molecular properties:
      ---------------------
 
      Charge (e):
                      =   -0.0000
      Dipole Moment (Debye):
      Origin of the operator (Ang)=    0.0000    0.0000    0.0000
                   X= -7.8519E-01               Y= -7.6726E-12               Z=  1.3193E-14           Total=  7.8519E-01
      Quadrupole Moment (Debye*Ang):
      Origin of the operator (Ang)=    0.4372    0.0000    0.0000
                  XX= -1.6014E+01              XY= -8.7886E-12              XZ= -3.0156E-14              YY= -1.7697E+01
                  YZ= -8.3627E-14              ZZ= -1.5147E+01
      In traceless form (Debye*Ang)
                  XX=  4.0845E-01              XY= -1.3183E-11              XZ= -4.5234E-14              YY= -2.1166E+00
                  YZ= -1.2544E-13              ZZ=  1.7082E+00
--
 
 
  Input file to MOLDEN was generated!
 
 ###############################################################################
 ###############################################################################
 ###                                                                         ###
 ###                                                                         ###
 ###    RunFile label nBas                                                   ###
 ###    was used       78 times                                              ###
 ###                                                                         ###
 ###                                                                         ###
 ###############################################################################
 ###############################################################################
forrtl: warning (528): IEEE_UNDERFLOW is signaling
--- Stop Module: scf at Fri Jan 24 15:01:20 2025 /rc=_RC_ALL_IS_WELL_ ---
*** files: ozone_118.25.LprOrb ozone_118.25.LoProp.molden ozone_118.25.scf.molden ozone_118.25.ScfOrb ozone_118.25.scf.h5 xmldump
    saved to directory /home/grierjones/DDCASPT2/ozone/ANO-RCC-VDZP/ozone_118.25

>>> COPY /tmp/ozone_118.25/ozone_118.25.scf.h5 /home/grierjones/DDCASPT2/ozone/ANO-RCC-VDZP/ozone_118.25/

*** symbolic link created: INPORB -> ozone_118.25.ScfOrb
--- Start Module: rasscf at Fri Jan 24 15:01:20 2025 ---
 
()()()()()()()()()()()()()()()()()()()()()()()()()()()()()()()()()()()()()()()()()()()()()()()()()()

                                              &RASSCF

                                   only a single process is used
                       available to each process: 2.0 GB of memory, 1 thread?
()()()()()()()()()()()()()()()()()()()()()()()()()()()()()()()()()()()()()()()()()()()()()()()()()()
 
 
 *************** WARNING ****************
 ###############################################################################
 ###############################################################################
 ###                                                                         ###
 ###                                                                         ###
 ###    Too many macro-iterations.                                           ###
 ###                                                                         ###
 ###                                                                         ###
 ###############################################################################
 ###############################################################################
 Too many macro-iterations requested.
 Reset to maximum, new MAXIT=     200
 ****************************************
 
 *************** WARNING ****************
 ###############################################################################
 ###############################################################################
 ###                                                                         ###
 ###                                                                         ###
 ###    Too many SX-iterations.                                              ###
 ###                                                                         ###
 ###                                                                         ###
 ###############################################################################
 ###############################################################################
 Too many SX-iterations requested.
 Reset to maximum, new ITMAX=     100
 ****************************************
 
      Header of the ONEINT file:
      --------------------------
      
      Integrals generated by seward 4.2.0  , Fri Jan 24 15:01:18 2025
 
 
      OrdInt status: non-squared
 
 
      Cartesian coordinates in Angstrom:
      -----------------------------------------------------
      No.  Label        X            Y            Z        
      -----------------------------------------------------
       1   O1         0.65582700   1.09689300   0.00000000
       2   O2         0.00000000   0.00000000   0.00000000
       3   O3         0.65582700  -1.09689300   0.00000000
      -----------------------------------------------------
      Nuclear repulsion energy =   68.43839668
 
++    Wave function specifications:
      -----------------------------
 
      Number of closed shell electrons          20
      Number of electrons in active shells       4
      Max number of holes in RAS1 space          0
      Max nr of electrons in RAS3 space          0
      Number of inactive orbitals               10
      Number of active orbitals                  3
      Number of secondary orbitals              29
      Spin quantum number                      0.0
      State symmetry                             1
--
 
++    Orbital specifications:
      -----------------------
 
      Symmetry species                           1
                                                 a
      Frozen orbitals                            0
      Inactive orbitals                         10
      Active orbitals                            3
      RAS1 orbitals                              0
      RAS2 orbitals                              3
      RAS3 orbitals                              0
      Secondary orbitals                        29
      Deleted orbitals                           0
      Number of basis functions                 42
--
 
++    CI expansion specifications:
      ----------------------------
 
      Number of CSFs                             6
      Number of determinants                     6
      Number of root(s) required                 1
      Root chosen for geometry opt.              1
      CI root used                               1
         
      highest root included in the CI            1
      max. size of the explicit Hamiltonian      6
--
 
++    Optimization specifications:
      ----------------------------
 
      RASSCF algorithm: Conventional
      Maximum number of macro iterations       200
      Maximum number of SX iterations          100
      Threshold for RASSCF energy            0.100E-07
      Threshold for max MO rotation          0.100E+00
      Threshold for max BLB element          0.100E-03
      Level shift parameter                  0.500E+00
      Make Quasi-Newton update
--
 
      The MO-coefficients are taken from the file:
      /home/grierjones/DDCASPT2/ozone/ANO-RCC-VDZP/ozone_118.00/ozone_118.00.RasOrb                                                   
      Title: RASSCF average (pseudo-natural) orbitals                                      
 
      Total molecular charge    0.00
 
      ************************************************************************************************************************
      *                                                                                                                      *
      *                                            Wave function control section                                             *
      *                                                                                                                      *
      ************************************************************************************************************************
 
 
                                         RASSCF iterations: Energy and convergence statistics
                                         ----------------------------------------------------
 
      Iter CI   SX   CI       RASSCF       Energy    max ROT     max BLB   max BLB  Level Ln srch  Step   QN   Walltime
          iter iter root      energy       change     param      element    value   shift minimum  type update hh:mm:ss
 Nr of preliminary CI iterations:   1
        1   1    3    1  -224.58917723    0.00E+00   0.45E-03    7  42 1  0.12E-02*  0.18   0.00    SX    NO    0:00:00
        2   1    3    1  -224.58918238   -0.52E-05*  0.27E-03    9  18 1 -0.64E-03*  0.18   0.00    SX    NO    0:00:00
        3   1    3    1  -224.58918359   -0.12E-05*  0.16E-03    9  18 1 -0.41E-03*  0.18   0.00    SX    NO    0:00:00
        4   1    3    1  -224.58918400   -0.41E-06*  0.11E-03    9  18 1 -0.22E-03*  0.18   0.00    SX    NO    0:00:00
        5   1    3    1  -224.58918414   -0.14E-06*  0.16E-03    9  18 1 -0.16E-03*  0.18   2.50    LS   YES    0:00:00
        6   1    3    1  -224.58918420   -0.64E-07* -0.39E-04    8  18 1  0.13E-03*  0.18   0.86    QN   YES    0:00:00
        7   1    3    1  -224.58918422   -0.18E-07* -0.12E-04    8  18 1 -0.61E-04   0.18   0.75    QN   YES    0:00:00
        8   1    2    1  -224.58918422    0.10E-09  -0.42E-05    8  18 1  0.43E-04   0.18   0.42    QN   YES    0:00:00
      Convergence after  8 iterations
 
  Dmat in MO in SXCTL bf call to SXHAM                                                                                    
  mat. size =     3x    3
 
        1.9928752420109186
       -0.0000000000000332      1.6075302574530215
        0.0006485314897768     -0.0000000000001910      0.3995945005360594
        9   1    2    1  -224.58918422   -0.58E-09  -0.42E-05    8  18 1  0.93E-05   0.18   0.42    QN   YES    0:00:00
 
      ************************************************************************************************************************
                                                      Wave function printout:
                       occupation of active orbitals, and spin coupling of open shells (u,d: Spin up or down)
      ************************************************************************************************************************
 
      Note: transformation to natural orbitals
      has been made, which may change the order of the CSFs.
 
      printout of CI-coefficients larger than  0.05 for root  1
      energy=    -224.589184
      conf/sym  111     Coeff  Weight
             1  220  -0.89454 0.80020
             3  202   0.44298 0.19623
             6  022   0.05968 0.00356
 
      Natural orbitals and occupation numbers for root  1
      sym 1:   1.992876   1.607530   0.399594
 
      ************************************************************************************************************************
      *                                                                                                                      *
      *                                                    Final results                                                     *
      *                                                                                                                      *
      ************************************************************************************************************************
 
 
++    Wave function specifications:
      -----------------------------
 
      Number of closed shell electrons          20
      Number of electrons in active shells       4
      Max number of holes in RAS1 space          0
      Max nr of electrons in RAS3 space          0
      Number of inactive orbitals               10
      Number of active orbitals                  3
      Number of secondary orbitals              29
      Spin quantum number                      0.0
      State symmetry                             1
--
 
++    Orbital specifications:
      -----------------------
 
      Symmetry species                           1
                                                 a
      Frozen orbitals                            0
      Inactive orbitals                         10
      Active orbitals                            3
      RAS1 orbitals                              0
      RAS2 orbitals                              3
      RAS3 orbitals                              0
      Secondary orbitals                        29
      Deleted orbitals                           0
      Number of basis functions                 42
--
 
++    CI expansion specifications:
      ----------------------------
 
      Number of CSFs                             6
      Number of determinants                     6
      Number of root(s) required                 1
      CI root used                               1
      highest root included in the CI            1
      Root passed to geometry opt.               1
--
 
++    Final optimization conditions:
      ------------------------------
 
      Average CI energy                            -224.58918422
      RASSCF energy for state  1                   -224.58918422
      Super-CI energy                                -0.00000000
      RASSCF energy change                           -0.00000000
      Max change in MO coefficients               0.447E-05
      Max non-diagonal density matrix element    -0.421E-05
      Maximum BLB matrix element                  0.932E-05
      (orbital pair   8,  18 in symmetry   1)
      Norm of electronic gradient            0.303E-04
--
 
 
      Final state energy(ies):
      ------------------------
 
::    RASSCF root number  1 Total energy:   -224.58918422
 
++    Molecular orbitals:
      -------------------
 
      Pseudonatural active orbitals and approximate occupation numbers
 
 
 
 
      Molecular orbitals for symmetry species 1: a  
 
 
      Orbital                1         2         3         4         5         6         7         8         9        10
      Energy          -20.8148  -20.7139  -20.7138   -1.7174   -1.4217   -1.0790   -0.7994   -0.7865   -0.5708   -0.5396
      Occ. No.          2.0000    2.0000    2.0000    2.0000    2.0000    2.0000    2.0000    2.0000    2.0000    2.0000
 
    1 O1     1s         0.0033   -0.7072    0.7072   -0.0152    0.0091    0.0108   -0.0113   -0.0182    0.0037    0.0062
    2 O1     2s        -0.0001   -0.0005    0.0006    0.3375   -0.5996    0.5959   -0.2147   -0.3691    0.0330    0.0371
    3 O1     3s        -0.0002    0.0002   -0.0002   -0.0241    0.0112    0.0148   -0.0237   -0.0271    0.0058    0.0251
    4 O1     2px        0.0002    0.0005   -0.0004   -0.0529    0.0621    0.1151    0.1925   -0.3623   -0.5271    0.6420
    5 O1     3px        0.0004   -0.0001    0.0003    0.0137   -0.0089   -0.0169   -0.0149    0.0216   -0.0163    0.0131
    6 O1     2py        0.0001    0.0007   -0.0008   -0.1056    0.0687    0.1148   -0.3734   -0.2900    0.5126   -0.0805
    7 O1     3py        0.0002   -0.0005    0.0003    0.0256   -0.0120   -0.0159    0.0303    0.0194    0.0053   -0.0272
    8 O1     2pz        0.0000    0.0000    0.0000    0.0000   -0.0000    0.0000   -0.0000    0.0000   -0.0000   -0.0000
    9 O1     3pz        0.0000    0.0000   -0.0000    0.0000   -0.0000   -0.0000   -0.0000    0.0000   -0.0000   -0.0000
   10 O1     3d2-      -0.0001    0.0000   -0.0000    0.0161   -0.0129   -0.0124    0.0040    0.0287   -0.0013   -0.0138
   11 O1     3d1-       0.0000   -0.0000    0.0000   -0.0000   -0.0000    0.0000   -0.0000    0.0000    0.0000    0.0000
   12 O1     3d0        0.0001    0.0001   -0.0002   -0.0108    0.0093    0.0044   -0.0094   -0.0160    0.0047    0.0058
   13 O1     3d1+       0.0000    0.0000    0.0000   -0.0000    0.0000   -0.0000   -0.0000    0.0000    0.0000   -0.0000
   14 O1     3d2+       0.0001   -0.0001    0.0000   -0.0112    0.0045    0.0031   -0.0250   -0.0064    0.0178    0.0015
   15 O2     1s         1.0001    0.0000   -0.0048   -0.0227   -0.0000   -0.0142   -0.0099    0.0000    0.0000    0.0208
   16 O2     2s         0.0008    0.0000   -0.0007    0.6251    0.0000   -0.6655   -0.1416    0.0000    0.0000    0.2859
   17 O2     3s        -0.0003    0.0000   -0.0006   -0.0368   -0.0000   -0.0120   -0.0155   -0.0000    0.0000    0.0371
   18 O2     2px        0.0010    0.0000   -0.0004    0.1203    0.0000    0.1810    0.6219   -0.0000   -0.0000   -0.5407
   19 O2     3px       -0.0010    0.0000   -0.0005   -0.0254   -0.0000   -0.0196   -0.0406    0.0000   -0.0000   -0.0261
   20 O2     2py        0.0000    0.0006    0.0000    0.0000   -0.2949   -0.0000    0.0000    0.5089   -0.1324    0.0000
   21 O2     3py        0.0000    0.0008    0.0000    0.0000    0.0671    0.0000   -0.0000   -0.0664   -0.0009    0.0000
   22 O2     2pz       -0.0000    0.0000    0.0000    0.0000    0.0000    0.0000    0.0000    0.0000    0.0000   -0.0000
   23 O2     3pz       -0.0000   -0.0000   -0.0000   -0.0000    0.0000   -0.0000    0.0000   -0.0000   -0.0000   -0.0000
   24 O2     3d2-       0.0000    0.0002    0.0000    0.0000   -0.0390   -0.0000    0.0000    0.0312   -0.0355    0.0000
   25 O2     3d1-      -0.0000   -0.0000    0.0000   -0.0000   -0.0000    0.0000    0.0000    0.0000   -0.0000   -0.0000
   26 O2     3d0       -0.0000   -0.0000    0.0003   -0.0176   -0.0000   -0.0065   -0.0171    0.0000    0.0000    0.0223
   27 O2     3d1+      -0.0000    0.0000    0.0000   -0.0000   -0.0000    0.0000    0.0000    0.0000    0.0000    0.0000
   28 O2     3d2+      -0.0000   -0.0000    0.0001   -0.0106   -0.0000    0.0032    0.0269   -0.0000    0.0000    0.0301
   29 O3     1s         0.0033    0.7072    0.7072   -0.0152   -0.0091    0.0108   -0.0113    0.0182   -0.0037    0.0062
   30 O3     2s        -0.0001    0.0005    0.0006    0.3375    0.5996    0.5959   -0.2147    0.3691   -0.0330    0.0371
   31 O3     3s        -0.0002   -0.0002   -0.0002   -0.0241   -0.0112    0.0148   -0.0237    0.0271   -0.0058    0.0251
   32 O3     2px        0.0002   -0.0005   -0.0004   -0.0529   -0.0621    0.1151    0.1925    0.3623    0.5271    0.6420
   33 O3     3px        0.0004    0.0001    0.0003    0.0137    0.0089   -0.0169   -0.0149   -0.0216    0.0163    0.0131
   34 O3     2py       -0.0001    0.0007    0.0008    0.1056    0.0687   -0.1148    0.3734   -0.2900    0.5126    0.0805
   35 O3     3py       -0.0002   -0.0005   -0.0003   -0.0256   -0.0120    0.0159   -0.0303    0.0194    0.0053    0.0272
   36 O3     2pz        0.0000   -0.0000    0.0000   -0.0000    0.0000   -0.0000    0.0000    0.0000    0.0000    0.0000
   37 O3     3pz        0.0000    0.0000   -0.0000    0.0000    0.0000    0.0000   -0.0000   -0.0000    0.0000    0.0000
   38 O3     3d2-       0.0001    0.0000    0.0000   -0.0161   -0.0129    0.0124   -0.0040    0.0287   -0.0013    0.0138
   39 O3     3d1-       0.0000    0.0000   -0.0000    0.0000    0.0000    0.0000   -0.0000    0.0000   -0.0000   -0.0000
   40 O3     3d0        0.0001   -0.0001   -0.0002   -0.0108   -0.0093    0.0044   -0.0094    0.0160   -0.0047    0.0058
   41 O3     3d1+      -0.0000    0.0000    0.0000    0.0000    0.0000    0.0000   -0.0000   -0.0000   -0.0000    0.0000
   42 O3     3d2+       0.0001    0.0001    0.0000   -0.0112   -0.0045    0.0031   -0.0250    0.0064   -0.0178    0.0015
 
 
      Orbital               11        12        13        14        15        16        17        18        19        20
      Energy            0.0000    0.0000    0.0000    0.2626    0.2856    0.4647    0.4692    0.5541    0.6266    0.6887
      Occ. No.          1.9929    1.6075    0.3996    0.0000    0.0000    0.0000    0.0000    0.0000    0.0000    0.0000
 
    1 O1     1s        -0.0000   -0.0000   -0.0000   -0.0635   -0.1317   -0.0000   -0.0349   -0.0372    0.0221    0.0001
    2 O1     2s         0.0000    0.0000   -0.0000   -0.5646   -1.0052   -0.0000   -0.1761   -0.1482    0.1028    0.0150
    3 O1     3s        -0.0000    0.0000    0.0000   -0.1481   -0.3247   -0.0000   -0.1503   -0.1339    0.2072    0.0366
    4 O1     2px        0.0000   -0.0000    0.0000    0.2379    0.4878   -0.0000   -0.0913   -0.2214   -0.0438   -0.0457
    5 O1     3px        0.0000    0.0000   -0.0000    0.1656    0.3158    0.0000    0.4310   -0.0388    0.2022   -0.7824
    6 O1     2py       -0.0000   -0.0000    0.0000    0.7571    0.4578   -0.0000   -0.0992   -0.2711   -0.0280   -0.0601
    7 O1     3py       -0.0000    0.0000    0.0000    0.3771    0.4753    0.0000    0.1129    0.3428   -0.7430   -0.2054
    8 O1     2pz        0.2529   -0.7156    0.6924   -0.0000   -0.0000   -0.0117    0.0000    0.0000   -0.0000   -0.0000
    9 O1     3pz       -0.0304   -0.0095   -0.0454   -0.0000   -0.0000    0.4692   -0.0000    0.0000   -0.0000   -0.0000
   10 O1     3d2-       0.0000    0.0000   -0.0000    0.0033   -0.0196   -0.0000   -0.0237   -0.0873    0.0002   -0.0257
   11 O1     3d1-      -0.0248    0.0164    0.0052   -0.0000    0.0000    0.0262   -0.0000   -0.0000    0.0000   -0.0000
   12 O1     3d0        0.0000    0.0000   -0.0000    0.0019    0.0114    0.0000    0.0248    0.0479   -0.0008    0.0009
   13 O1     3d1+      -0.0143    0.0095    0.0013    0.0000    0.0000    0.0187   -0.0000    0.0000    0.0000   -0.0000
   14 O1     3d2+       0.0000   -0.0000    0.0000   -0.0071    0.0123    0.0000    0.0638   -0.0003   -0.0199    0.0116
   15 O2     1s         0.0000   -0.0000    0.0000    0.1732    0.0000    0.0000    0.0651   -0.0000   -0.1098   -0.0000
   16 O2     2s        -0.0000   -0.0000    0.0000    1.4058    0.0000    0.0000    0.3135   -0.0000   -0.5894   -0.0000
   17 O2     3s        -0.0000   -0.0000    0.0000    0.3837    0.0000    0.0000    0.2442    0.0000   -0.2555   -0.0000
   18 O2     2px       -0.0000    0.0000    0.0000    0.7509    0.0000   -0.0000   -0.1819    0.0000   -0.1055   -0.0000
   19 O2     3px       -0.0000    0.0000    0.0000    0.4055    0.0000    0.0000    0.5276   -0.0000   -0.4154   -0.0000
   20 O2     2py        0.0000   -0.0000    0.0000   -0.0000    1.2417    0.0000   -0.0000   -0.4178    0.0000    0.0686
   21 O2     3py        0.0000   -0.0000    0.0000   -0.0000    0.8706    0.0000   -0.0000    0.5878   -0.0000    0.1552
   22 O2     2pz        0.8304   -0.0000   -0.6143    0.0000    0.0000   -0.2235    0.0000   -0.0000    0.0000    0.0000
   23 O2     3pz       -0.0169   -0.0000   -0.0669    0.0000    0.0000    0.3677   -0.0000   -0.0000    0.0000    0.0000
   24 O2     3d2-       0.0000   -0.0000   -0.0000   -0.0000    0.0402    0.0000    0.0000    0.1201   -0.0000   -0.0954
   25 O2     3d1-      -0.0000   -0.0387    0.0000   -0.0000    0.0000    0.0000   -0.0000   -0.0000   -0.0000    0.0000
   26 O2     3d0       -0.0000   -0.0000   -0.0000    0.0064    0.0000   -0.0000   -0.0623    0.0000    0.1045    0.0000
   27 O2     3d1+       0.0329   -0.0000   -0.0092    0.0000    0.0000   -0.0426    0.0000    0.0000   -0.0000   -0.0000
   28 O2     3d2+       0.0000   -0.0000    0.0000    0.0084    0.0000   -0.0000   -0.1042    0.0000    0.0299   -0.0000
   29 O3     1s        -0.0000    0.0000   -0.0000   -0.0635    0.1317   -0.0000   -0.0349    0.0372    0.0221   -0.0001
   30 O3     2s        -0.0000    0.0000   -0.0000   -0.5646    1.0052   -0.0000   -0.1761    0.1482    0.1028   -0.0150
   31 O3     3s         0.0000   -0.0000   -0.0000   -0.1481    0.3247   -0.0000   -0.1503    0.1339    0.2072   -0.0366
   32 O3     2px       -0.0000   -0.0000   -0.0000    0.2379   -0.4878   -0.0000   -0.0913    0.2214   -0.0438    0.0457
   33 O3     3px       -0.0000    0.0000    0.0000    0.1656   -0.3158    0.0000    0.4310    0.0388    0.2022    0.7824
   34 O3     2py       -0.0000   -0.0000   -0.0000   -0.7571    0.4578    0.0000    0.0992   -0.2711    0.0280   -0.0601
   35 O3     3py       -0.0000    0.0000    0.0000   -0.3771    0.4753   -0.0000   -0.1129    0.3428    0.7430   -0.2054
   36 O3     2pz        0.2529    0.7156    0.6924   -0.0000   -0.0000   -0.0117   -0.0000    0.0000   -0.0000   -0.0000
   37 O3     3pz       -0.0304    0.0095   -0.0454   -0.0000   -0.0000    0.4692   -0.0000   -0.0000   -0.0000    0.0000
   38 O3     3d2-       0.0000   -0.0000    0.0000   -0.0033   -0.0196    0.0000    0.0237   -0.0873   -0.0002   -0.0257
   39 O3     3d1-       0.0248    0.0164   -0.0052    0.0000    0.0000   -0.0262    0.0000    0.0000   -0.0000   -0.0000
   40 O3     3d0       -0.0000   -0.0000    0.0000    0.0019   -0.0114    0.0000    0.0248   -0.0479   -0.0008   -0.0009
   41 O3     3d1+      -0.0143   -0.0095    0.0013   -0.0000   -0.0000    0.0187   -0.0000    0.0000   -0.0000   -0.0000
   42 O3     3d2+       0.0000    0.0000    0.0000   -0.0071   -0.0123    0.0000    0.0638    0.0003   -0.0199   -0.0116
 
 
      Orbital               21        22        23        24        25        26        27        28        29        30
      Energy            0.7212    0.8364    0.8805    0.8969    1.0119    1.6868    1.6959    1.7074    1.7820    1.8450
      Occ. No.          0.0000    0.0000    0.0000    0.0000    0.0000    0.0000    0.0000    0.0000    0.0000    0.0000
 
    1 O1     1s        -0.0000    0.0156   -0.0539   -0.0000    0.0829   -0.0240    0.0000    0.0000   -0.1501   -0.0685
    2 O1     2s        -0.0000    0.0763   -0.2959   -0.0000    0.4442   -0.1697    0.0000    0.0000   -1.0999   -0.5213
    3 O1     3s         0.0000    0.4265    0.2345    0.0000    0.0942   -0.1592    0.0000    0.0000   -1.3559   -0.6642
    4 O1     2px       -0.0000    0.1571   -0.2711   -0.0000   -0.3092    0.1715   -0.0000   -0.0000    0.3666    0.1026
    5 O1     3px        0.0000    0.4564   -0.5450   -0.0000   -0.5767    0.0684   -0.0000   -0.0000    0.3850    0.2517
    6 O1     2py       -0.0000   -0.0392    0.0793    0.0000    0.2608    0.0390   -0.0000   -0.0000    0.3324    0.3288
    7 O1     3py        0.0000    0.3143    0.0652   -0.0000    0.7059    0.0852   -0.0000   -0.0000    0.2462    0.3482
    8 O1     2pz       -0.1202   -0.0000   -0.0000    0.4205    0.0000   -0.0000   -0.1606   -0.1218   -0.0000    0.0000
    9 O1     3pz       -0.8700   -0.0000   -0.0000    0.8199    0.0000   -0.0000    0.0057   -0.0775   -0.0000   -0.0000
   10 O1     3d2-       0.0000   -0.0353   -0.0855   -0.0000    0.0517    0.3113   -0.0000   -0.0000    0.0625   -0.0332
   11 O1     3d1-      -0.0339    0.0000    0.0000   -0.0270    0.0000   -0.0000   -0.2657   -0.4282   -0.0000    0.0000
   12 O1     3d0       -0.0000   -0.0049    0.0878    0.0000   -0.0747    0.2704   -0.0000    0.0000   -0.1927    0.1983
   13 O1     3d1+      -0.0016    0.0000   -0.0000    0.0297    0.0000   -0.0000   -0.3636    0.1706   -0.0000    0.0000
   14 O1     3d2+      -0.0000   -0.0009    0.0234    0.0000   -0.1222    0.1920   -0.0000   -0.0000    0.0564   -0.3041
   15 O2     1s         0.0000    0.0343   -0.0342   -0.0000   -0.0000    0.0482    0.0000    0.0000    0.0000    0.1864
   16 O2     2s        -0.0000    0.1498   -0.1150   -0.0000   -0.0000    0.3562   -0.0000   -0.0000    0.0000    1.2973
   17 O2     3s         0.0000    0.4609    0.2480    0.0000   -0.0000    0.3979   -0.0000    0.0000    0.0000    1.2733
   18 O2     2px        0.0000   -0.2916    0.4775    0.0000   -0.0000    0.2107   -0.0000   -0.0000    0.0000    0.1599
   19 O2     3px        0.0000   -0.7890    1.0696    0.0000    0.0000   -0.0287    0.0000   -0.0000    0.0000    0.1862
   20 O2     2py       -0.0000   -0.0000    0.0000    0.0000   -0.6952    0.0000   -0.0000   -0.0000    1.0571   -0.0000
   21 O2     3py       -0.0000   -0.0000   -0.0000    0.0000   -1.3438    0.0000   -0.0000   -0.0000    1.2687   -0.0000
   22 O2     2pz       -0.0000    0.0000    0.0000   -0.6256   -0.0000   -0.0000   -0.0000   -0.0972   -0.0000    0.0000
   23 O2     3pz       -0.0000    0.0000    0.0000   -1.5343   -0.0000    0.0000    0.0000    0.1794    0.0000   -0.0000
   24 O2     3d2-       0.0000   -0.0000   -0.0000   -0.0000    0.1443    0.0000    0.0000   -0.0000    0.0229   -0.0000
   25 O2     3d1-       0.0594   -0.0000   -0.0000   -0.0000   -0.0000    0.0000    0.5976   -0.0000    0.0000   -0.0000
   26 O2     3d0       -0.0000   -0.0168    0.1438    0.0000   -0.0000    0.3928   -0.0000    0.0000    0.0000    0.2073
   27 O2     3d1+       0.0000   -0.0000   -0.0000    0.0531   -0.0000   -0.0000    0.0000    0.6004    0.0000   -0.0000
   28 O2     3d2+       0.0000    0.0171    0.0673    0.0000   -0.0000   -0.4102    0.0000   -0.0000    0.0000    0.3467
   29 O3     1s         0.0000    0.0156   -0.0539   -0.0000   -0.0829   -0.0240   -0.0000   -0.0000    0.1501   -0.0685
   30 O3     2s        -0.0000    0.0763   -0.2959   -0.0000   -0.4442   -0.1697    0.0000   -0.0000    1.0999   -0.5213
   31 O3     3s         0.0000    0.4265    0.2345    0.0000   -0.0942   -0.1592   -0.0000   -0.0000    1.3559   -0.6642
   32 O3     2px       -0.0000    0.1571   -0.2711   -0.0000    0.3092    0.1715   -0.0000    0.0000   -0.3666    0.1026
   33 O3     3px       -0.0000    0.4564   -0.5450   -0.0000    0.5767    0.0684    0.0000    0.0000   -0.3850    0.2517
   34 O3     2py        0.0000    0.0392   -0.0793   -0.0000    0.2608   -0.0390   -0.0000   -0.0000    0.3324   -0.3288
   35 O3     3py        0.0000   -0.3143   -0.0652   -0.0000    0.7059   -0.0852    0.0000   -0.0000    0.2462   -0.3482
   36 O3     2pz        0.1202   -0.0000   -0.0000    0.4205   -0.0000    0.0000    0.1606   -0.1218    0.0000   -0.0000
   37 O3     3pz        0.8700   -0.0000   -0.0000    0.8199    0.0000    0.0000   -0.0057   -0.0775   -0.0000    0.0000
   38 O3     3d2-       0.0000    0.0353    0.0855    0.0000    0.0517   -0.3113    0.0000   -0.0000    0.0625    0.0332
   39 O3     3d1-      -0.0339   -0.0000   -0.0000    0.0270    0.0000   -0.0000   -0.2657    0.4282    0.0000    0.0000
   40 O3     3d0        0.0000   -0.0049    0.0878    0.0000    0.0747    0.2704   -0.0000   -0.0000    0.1927    0.1983
   41 O3     3d1+       0.0016   -0.0000   -0.0000    0.0297   -0.0000    0.0000    0.3636    0.1706    0.0000   -0.0000
   42 O3     3d2+       0.0000   -0.0009    0.0234   -0.0000    0.1222    0.1920   -0.0000    0.0000   -0.0564   -0.3041
 
 
      Orbital               31        32        33        34        35        36        37        38        39        40
      Energy            2.1298    2.1983    2.2336    2.2578    2.5681    2.7218    2.8195    3.0725    3.1038    3.3612
      Occ. No.          0.0000    0.0000    0.0000    0.0000    0.0000    0.0000    0.0000    0.0000    0.0000    0.0000
 
    1 O1     1s        -0.0912   -0.0000   -0.0000    0.1204    0.1183    0.0847    0.0231   -0.1447   -0.0000   -0.0000
    2 O1     2s        -0.6087   -0.0000   -0.0000    0.8249    0.6939    0.4555    0.3098   -1.0115   -0.0000    0.0000
    3 O1     3s        -0.4754    0.0000   -0.0000    0.6284    0.2597    0.0660    0.5206   -0.6629   -0.0000    0.0000
    4 O1     2px        0.1882   -0.0000    0.0000   -0.1658   -0.3392    0.0261   -0.2204    0.1488    0.0000    0.0000
    5 O1     3px        0.1313   -0.0000    0.0000    0.0046   -0.3553    0.2248   -0.2840   -0.0101    0.0000   -0.0000
    6 O1     2py        0.1779    0.0000    0.0000   -0.4327   -0.0478   -0.1398   -0.2171    0.7072    0.0000   -0.0000
    7 O1     3py       -0.0470    0.0000    0.0000   -0.2869    0.4015    0.1257   -0.3260    0.4235    0.0000   -0.0000
    8 O1     2pz        0.0000   -0.0060   -0.0574    0.0000    0.0000   -0.0000   -0.0000   -0.0000   -0.3660   -0.2976
    9 O1     3pz        0.0000   -0.0934   -0.1621   -0.0000    0.0000    0.0000    0.0000    0.0000   -0.3864   -0.2265
   10 O1     3d2-       0.2572   -0.0000    0.0000    0.1295    0.3960   -0.4801    0.5973   -0.1940   -0.0000    0.0000
   11 O1     3d1-       0.0000    0.5253    0.0053    0.0000    0.0000    0.0000    0.0000   -0.0000    0.6700    0.5160
   12 O1     3d0        0.5241   -0.0000    0.0000    0.4910    0.2580    0.0674   -0.3798    0.3831    0.0000   -0.0000
   13 O1     3d1+      -0.0000   -0.4928    0.6851    0.0000   -0.0000   -0.0000    0.0000    0.0000    0.2201    0.4310
   14 O1     3d2+      -0.3145    0.0000   -0.0000   -0.2459    0.5169    0.1984    0.0274    0.6059    0.0000   -0.0000
   15 O2     1s         0.0000    0.0000    0.0000   -0.1748   -0.0000    0.0589   -0.0000    0.3088    0.0000   -0.0000
   16 O2     2s         0.0000    0.0000    0.0000   -1.3633   -0.0000    0.0953   -0.0000    2.1194    0.0000    0.0000
   17 O2     3s         0.0000    0.0000    0.0000   -1.4081   -0.0000   -0.5725   -0.0000    1.3094    0.0000   -0.0000
   18 O2     2px        0.0000    0.0000    0.0000   -0.6392   -0.0000   -0.2578   -0.0000    1.0898    0.0000   -0.0000
   19 O2     3px        0.0000    0.0000    0.0000   -0.5865   -0.0000   -0.5855   -0.0000    0.6444    0.0000   -0.0000
   20 O2     2py        0.6488   -0.0000    0.0000    0.0000   -0.9813   -0.0000   -0.6726   -0.0000   -0.0000   -0.0000
   21 O2     3py        0.7306   -0.0000    0.0000    0.0000   -1.1009   -0.0000    0.0428   -0.0000   -0.0000   -0.0000
   22 O2     2pz       -0.0000    0.0000    0.3259    0.0000    0.0000    0.0000    0.0000    0.0000    0.7276    0.0000
   23 O2     3pz       -0.0000    0.0000    0.2385    0.0000   -0.0000   -0.0000    0.0000   -0.0000    0.7238    0.0000
   24 O2     3d2-       0.2634   -0.0000    0.0000    0.0000   -0.4178    0.0000    0.4148    0.0000    0.0000   -0.0000
   25 O2     3d1-      -0.0000   -0.1056    0.0000   -0.0000   -0.0000    0.0000   -0.0000    0.0000   -0.0000    1.0238
   26 O2     3d0        0.0000   -0.0000    0.0000   -0.1480   -0.0000    0.7103    0.0000   -0.6382   -0.0000    0.0000
   27 O2     3d1+       0.0000   -0.0000   -0.3588   -0.0000    0.0000   -0.0000    0.0000   -0.0000    0.8595    0.0000
   28 O2     3d2+      -0.0000   -0.0000   -0.0000    0.1785    0.0000    0.1102   -0.0000    0.3831   -0.0000   -0.0000
   29 O3     1s         0.0912    0.0000   -0.0000    0.1204   -0.1183    0.0847   -0.0231   -0.1447   -0.0000   -0.0000
   30 O3     2s         0.6087   -0.0000   -0.0000    0.8249   -0.6939    0.4555   -0.3098   -1.0115   -0.0000   -0.0000
   31 O3     3s         0.4754   -0.0000    0.0000    0.6284   -0.2597    0.0660   -0.5206   -0.6629   -0.0000   -0.0000
   32 O3     2px       -0.1882    0.0000    0.0000   -0.1658    0.3392    0.0261    0.2204    0.1488   -0.0000    0.0000
   33 O3     3px       -0.1313   -0.0000   -0.0000    0.0046    0.3553    0.2248    0.2840   -0.0101    0.0000    0.0000
   34 O3     2py        0.1779   -0.0000    0.0000    0.4327   -0.0478    0.1398   -0.2171   -0.7072   -0.0000   -0.0000
   35 O3     3py       -0.0470   -0.0000   -0.0000    0.2869    0.4015   -0.1257   -0.3260   -0.4235   -0.0000   -0.0000
   36 O3     2pz        0.0000    0.0060   -0.0574   -0.0000   -0.0000   -0.0000   -0.0000   -0.0000   -0.3660    0.2976
   37 O3     3pz        0.0000    0.0934   -0.1621   -0.0000    0.0000    0.0000    0.0000    0.0000   -0.3864    0.2265
   38 O3     3d2-       0.2572   -0.0000    0.0000   -0.1295    0.3960    0.4801    0.5973    0.1940    0.0000    0.0000
   39 O3     3d1-       0.0000    0.5253   -0.0053    0.0000    0.0000    0.0000    0.0000    0.0000   -0.6700    0.5160
   40 O3     3d0       -0.5241    0.0000   -0.0000    0.4910   -0.2580    0.0674    0.3798    0.3831    0.0000    0.0000
   41 O3     3d1+      -0.0000    0.4928    0.6851    0.0000   -0.0000    0.0000    0.0000   -0.0000    0.2201   -0.4310
   42 O3     3d2+       0.3145   -0.0000    0.0000   -0.2459   -0.5169    0.1984   -0.0274    0.6059    0.0000    0.0000
 
 
      Orbital               41        42
      Energy            3.4183    3.8280
      Occ. No.          0.0000    0.0000
 
    1 O1     1s        -0.1458    0.1229
    2 O1     2s        -0.9823    0.8522
    3 O1     3s        -0.5629    0.4933
    4 O1     2px        0.2219   -0.6034
    5 O1     3px        0.0530   -0.3160
    6 O1     2py        0.5983   -0.4401
    7 O1     3py        0.1805   -0.2122
    8 O1     2pz       -0.0000    0.0000
    9 O1     3pz       -0.0000   -0.0000
   10 O1     3d2-      -0.2893    0.6076
   11 O1     3d1-       0.0000    0.0000
   12 O1     3d0        0.2017   -0.2865
   13 O1     3d1+       0.0000    0.0000
   14 O1     3d2+       0.5414    0.2791
   15 O2     1s        -0.0000   -0.2701
   16 O2     2s        -0.0000   -1.8499
   17 O2     3s        -0.0000   -1.1024
   18 O2     2px       -0.0000   -0.1813
   19 O2     3px       -0.0000    0.1634
   20 O2     2py        0.9839    0.0000
   21 O2     3py        0.4422    0.0000
   22 O2     2pz       -0.0000    0.0000
   23 O2     3pz        0.0000    0.0000
   24 O2     3d2-       1.1275    0.0000
   25 O2     3d1-       0.0000    0.0000
   26 O2     3d0        0.0000    0.4243
   27 O2     3d1+      -0.0000    0.0000
   28 O2     3d2+      -0.0000    1.0689
   29 O3     1s         0.1458    0.1229
   30 O3     2s         0.9823    0.8522
   31 O3     3s         0.5629    0.4933
   32 O3     2px       -0.2219   -0.6034
   33 O3     3px       -0.0530   -0.3160
   34 O3     2py        0.5983    0.4401
   35 O3     3py        0.1805    0.2122
   36 O3     2pz        0.0000   -0.0000
   37 O3     3pz        0.0000   -0.0000
   38 O3     3d2-      -0.2893   -0.6076
   39 O3     3d1-       0.0000   -0.0000
   40 O3     3d0       -0.2017   -0.2865
   41 O3     3d1+      -0.0000    0.0000
   42 O3     3d2+      -0.5414    0.2791
--
 
      Von Neumann Entropy (Root  1) =  0.72265
 

      Mulliken population analysis for root number:  1
      -----------------------------------------------
 
 
++    Molecular charges:
      ------------------
 
      Mulliken charges per centre and basis function type
      ---------------------------------------------------
 
                O1      O2      O3    
      1s       2.0003  2.0003  2.0003
      2s       1.9192  1.7713  1.9192
      2px      1.7518  1.4942  1.7518
      2pz      1.1709  1.6328  1.1709
      2py      1.2035  0.9348  1.2035
      3s      -0.0058 -0.0162 -0.0058
      3px     -0.0166 -0.0319 -0.0166
      3pz     -0.0112 -0.0105 -0.0112
      3py     -0.0017  0.0030 -0.0017
      3d2+     0.0103  0.0330  0.0103
      3d1+     0.0038  0.0063  0.0038
      3d0      0.0055  0.0093  0.0055
      3d1-     0.0110  0.0227  0.0110
      3d2-     0.0152  0.0389  0.0152
      Total    8.0560  7.8881  8.0560
 
      N-E     -0.0560  0.1119 -0.0560
 
      Total electronic charge=   24.000000
 
      Total            charge=   -0.000000
--
 
 

      Expectation values of various properties for root number:  1
      -----------------------------------------------------------
 
 
++    Molecular properties:
      ---------------------
 
      Charge (e):
                      =   -0.0000
      Dipole Moment (Debye):
      Origin of the operator (Ang)=    0.0000    0.0000    0.0000
                   X= -1.6332E-01               Y= -1.5199E-11               Z=  1.5937E-13           Total=  1.6332E-01
      Quadrupole Moment (Debye*Ang):
      Origin of the operator (Ang)=    0.4372    0.0000    0.0000
                  XX= -1.6299E+01              XY= -1.0863E-11              XZ= -8.4547E-13              YY= -1.6715E+01
                  YZ= -4.5105E-13              ZZ= -1.4593E+01
      In traceless form (Debye*Ang)
                  XX= -6.4474E-01              XY= -1.6295E-11              XZ= -1.2682E-12              YY= -1.2694E+00
                  YZ= -6.7657E-13              ZZ=  1.9141E+00
--
 

      LoProp population analysis for root number:  1
      -----------------------------------------------
 
 
++    LoProp analysis:
      ----------------
 
 
 
  Input file to MOLDEN was generated!
 
 
++    Static properties:
      ------------------
 
 
      LoProp Charges per center
 

                   O1       O2       O3    
      Nuclear      8.0000   8.0000   8.0000
      Electronic  -8.0847  -7.8307  -8.0847
 
      Total       -0.0847   0.1693  -0.0847
--
 
 
      Natural Bond Order analysis for root number:  1
 
++    Natural Bond Order analysis
      ---------------------------
      Based on LoProp computed density
      -------------------------------------------------------------------------------------
      Atom A       Atom B       Bond Order | Atom A       Atom B       Bond Order
        O1           O2             1.967  |   O2           O3             1.967
      -------------------------------------------------------------------------------------
      NBO located     12.000 core electrons.
      NBO located      3.960 lone pair electrons.
      NBO located      7.869 electrons involved in    2 bonds.
      The remaining    0.171 electrons are to be considered as diffuse
--
 
--
 
 
  Input file to MOLDEN was generated!
 
      Average orbitals are written to the RASORB file
      Natural orbitals for root   1 are written to the RASORB.1 file
      Spin density orbitals for root   1 are written to the SPDORB.1 file
 
forrtl: warning (525): IEEE_DIVIDE_BY_ZERO is signaling
forrtl: warning (526): IEEE_INVALID is signaling
forrtl: warning (528): IEEE_UNDERFLOW is signaling
--- Stop Module: rasscf at Fri Jan 24 15:01:20 2025 /rc=_RC_ALL_IS_WELL_ ---
*** files: ozone_118.25.LprOrb ozone_118.25.rasscf.molden ozone_118.25.LoProp.molden ozone_118.25.RasOrb ozone_118.25.RasOrb.1 ozone_118.25.rasscf.h5 ozone_118.25.SpdOrb.1 xmldump
    saved to directory /home/grierjones/DDCASPT2/ozone/ANO-RCC-VDZP/ozone_118.25

>>> COPY /tmp/ozone_118.25/ozone_118.25.rasscf.h5 /home/grierjones/DDCASPT2/ozone/ANO-RCC-VDZP/ozone_118.25/

>>> COPY /tmp/ozone_118.25/GMJ_Fock_MO.csv /home/grierjones/DDCASPT2/ozone/ANO-RCC-VDZP/ozone_118.25/ozone_118.25.GMJ_Fock_MO.csv

>>> COPY /tmp/ozone_118.25/GMJ_PT2_Fock_MO.csv /home/grierjones/DDCASPT2/ozone/ANO-RCC-VDZP/ozone_118.25/ozone_118.25.GMJ_PT2_Fock_MO.csv

*** symbolic link created: INPORB -> ozone_118.25.RasOrb
--- Start Module: motra at Fri Jan 24 15:01:20 2025 ---
 
()()()()()()()()()()()()()()()()()()()()()()()()()()()()()()()()()()()()()()()()()()()()()()()()()()

                                               &MOTRA

                                   only a single process is used
                       available to each process: 2.0 GB of memory, 1 thread?
()()()()()()()()()()()()()()()()()()()()()()()()()()()()()()()()()()()()()()()()()()()()()()()()()()
 
 
      *** WARNING: Default frozen orbitals is overwritten by user input.
      *** Default values:   3
 
      Header of the integral files:
      
       Integrals generated by seward 4.2.0  , Fri Jan 24 15:01:18 2025
 
 
      Header of MO coefficients source file:
      * RASSCF average (pseudo-natural) orbitals                                      
 
 
      Cartesian coordinates in Angstrom:
      -----------------------------------------------------
      No.  Label        X            Y            Z        
      -----------------------------------------------------
       1   O1         0.65582700   1.09689300   0.00000000
       2   O2         0.00000000   0.00000000   0.00000000
       3   O3         0.65582700  -1.09689300   0.00000000
      -----------------------------------------------------
      Nuclear repulsion energy =   68.43839668
 
      Orbital specifications:
      -----------------------
 
      Symmetry species:              1
      Number of basis functions:    42
      Frozen orbitals:               0
      Deleted orbitals:              0
      Number of orbitals used:      42

       SYMMETRY  BASIS FUNCTIONS       ORBITALS      INTEGRALS   CPU(SEC)  I/O(SEC)
 
        1 1 1 1   42  42  42  42    42  42  42  42      408156       0.00      0.00

       TOTAL CPU TIME(SEC)    0.39TOTAL I/O TIME(SEC)    0.78
 
--- Stop Module: motra at Fri Jan 24 15:01:21 2025 /rc=_RC_ALL_IS_WELL_ ---
*** files: xmldump
    saved to directory /home/grierjones/DDCASPT2/ozone/ANO-RCC-VDZP/ozone_118.25

>>> COPY /tmp/ozone_118.25/GMJ_one_int_indx.csv /home/grierjones/DDCASPT2/ozone/ANO-RCC-VDZP/ozone_118.25/ozone_118.25.GMJ_one_int_indx.csv

>>> COPY /tmp/ozone_118.25/GMJ_one_int.csv /home/grierjones/DDCASPT2/ozone/ANO-RCC-VDZP/ozone_118.25/ozone_118.25.GMJ_one_int.csv

>>> COPY /tmp/ozone_118.25/GMJ_two_int_indx.csv /home/grierjones/DDCASPT2/ozone/ANO-RCC-VDZP/ozone_118.25/ozone_118.25.GMJ_two_int_indx.csv

>>> COPY /tmp/ozone_118.25/GMJ_two_int.csv /home/grierjones/DDCASPT2/ozone/ANO-RCC-VDZP/ozone_118.25/ozone_118.25.GMJ_two_int.csv

*** symbolic link created: INPORB -> ozone_118.25.RasOrb
--- Start Module: caspt2 at Fri Jan 24 15:01:21 2025 ---
 
()()()()()()()()()()()()()()()()()()()()()()()()()()()()()()()()()()()()()()()()()()()()()()()()()()

                                              &CASPT2

                                   only a single process is used
                       available to each process: 2.0 GB of memory, 1 thread?
()()()()()()()()()()()()()()()()()()()()()()()()()()()()()()()()()()()()()()()()()()()()()()()()()()
 
 Cholesky algorithm in CASPT2 =    1
 
 ###############################################################################
 ###############################################################################
 ###                                                                         ###
 ###                                                                         ###
 ###    User changed nr of frozen orbitals.                                  ###
 ###                                                                         ###
 ###                                                                         ###
 ###############################################################################
 ###############################################################################
 
++    Wave function specifications:
      -----------------------------
 
      Number of closed shell electrons          20
      Number of electrons in active shells       4
      Max number of holes in RAS1 space          0
      Max number of electrons in RAS3 space      0
      Number of inactive orbitals               10
      Number of active orbitals                  3
      Number of secondary orbitals              29
      Spin quantum number                      0.0
      State symmetry                             1
      Number of CSFs                             6
      Number of root(s) available                1
      Root passed to geometry opt.               1
      A file JOBMIX will be created.
      This is a CASSCF or RASSCF reference function
--
 
++    Orbital specifications:
      -----------------------
 
      Symmetry species                           1
                                                 a
      Frozen orbitals                            0
      Inactive orbitals                         10
      Active orbitals                            3
      Secondary orbitals                        29
      Deleted orbitals                           0
      Number of basis functions                 42
--
 
      Type of Fock operator: STANDARD
      Type of 0-order Hamiltonian: STANDARD WITH DEFAULT IPEA
        "IP-EA" denominator shift =      0.25
      The input orbitals and the CI vector will be transformed.
 
--------------------------------------------------------------------------------
 Estimated memory requirements:
  POLY3 :                   250202
  RHS:                      279634
  SIGMA :                   302200
  PRPCTL:                        0
 Available workspace:    230396563
 
++ CASPT2 computation for group   1
 
********************************************************************************
 Multi-State initialization phase begins for group   1
--------------------------------------------------------------------------------
********************************************************************************
 Compute H0 matrices for state    1
--------------------------------------------------------------------------------
--------------------------------------------------------------------------------
 H0 matrices have been computed.
 
********************************************************************************
  CASPT2 EQUATION SOLUTION
--------------------------------------------------------------------------------
 
  Total nr of CASPT2 parameters:
   Before reduction:       86691
   After  reduction:       82880
 
 The contributions to the second order correlation energy in atomic units.
-----------------------------------------------------------------------------------------------------------------------------
  IT.      VJTU        VJTI        ATVX        AIVX        VJAI        BVAT        BJAT        BJAI        TOTAL       RNORM  
-----------------------------------------------------------------------------------------------------------------------------
   1    -0.000000   -0.001124   -0.011685   -0.088859   -0.017445   -0.016727   -0.125678   -0.271716   -0.533233    0.002143
   2    -0.000000   -0.001139   -0.011729   -0.089155   -0.017461   -0.016732   -0.125718   -0.271718   -0.533653    0.000166
   3    -0.000000   -0.001139   -0.011729   -0.089160   -0.017461   -0.016732   -0.125719   -0.271719   -0.533659    0.000021
   4    -0.000000   -0.001140   -0.011729   -0.089158   -0.017461   -0.016732   -0.125718   -0.271719   -0.533657    0.000003
-------------------------------------------------------------------------------------------------------------------
 
  FINAL CASPT2 RESULT:
 
  Correlation energy /Case, /Symm, and sums:
 VJTU     -0.00000000 -0.00000000
 VJTIP    -0.00113967 -0.00113967
 VJTIM     0.00000000  0.00000000
 ATVX     -0.01172915 -0.01172915
 AIVX     -0.08915818 -0.08915818
 VJAIP    -0.01220050 -0.01220050
 VJAIM    -0.00526054 -0.00526054
 BVATP    -0.01573553 -0.01573553
 BVATM    -0.00099666 -0.00099666
 BJATP    -0.04628293 -0.04628293
 BJATM    -0.07943545 -0.07943545
 BJAIP    -0.18277161 -0.18277161
 BJAIM    -0.08894704 -0.08894704
 Summed:  -0.53365726 -0.53365726
 
      Reference energy:        -224.5891842181
      E2 (Non-variational):      -0.5336572569
      E2 (Variational):          -0.5336572808
      Total energy:            -225.1228414989
      Residual norm:              0.0000002483
      Reference weight:           0.85828
 
      Contributions to the CASPT2 correlation energy
      Active & Virtual Only:         -0.0284613358
      One Inactive Excited:          -0.2148765657
      Two Inactive Excited:          -0.2903193554
 
 
++ Denominators, etc.
----------------------------------------------------------------------------------------------------
 Report on small energy denominators, large coefficients, and large energy contributions.
CASE  SYMM ACTIVE-MIX  NON-ACTIVE INDICES          DENOMINATOR     RHS VALUE       COEFFICIENT     CONTRIBUTION
ATVX     1  Mu1.0007  Se1.016                       1.88037104     -0.05436330      0.02957045     -0.00160755
ATVX     1  Mu1.0005  Se1.021                       1.81154288      0.09076637     -0.04916752     -0.00446276
AIVX     1  Mu1.0003  In1.005 Se1.014               2.02708535      0.05525120     -0.02692585     -0.00148769
AIVX     1  Mu1.0004  In1.007 Se1.014               1.65210425     -0.06001688      0.03687286     -0.00221299
AIVX     1  Mu1.0002  In1.008 Se1.014               1.30871894     -0.04997635      0.03776283     -0.00188725
AIVX     1  Mu1.0002  In1.009 Se1.014               1.09307751      0.04258146     -0.03813428     -0.00162381
AIVX     1  Mu1.0003  In1.009 Se1.014               1.17619502      0.03027346     -0.02537765     -0.00076827
AIVX     1  Mu1.0004  In1.008 Se1.015               1.66213264     -0.04884765      0.02992381     -0.00146171
AIVX     1  Mu1.0002  In1.010 Se1.015               1.08487965      0.03713406     -0.03367948     -0.00125066
AIVX     1  Mu1.0004  In1.007 Se1.017               1.85865596      0.05689671     -0.03108210     -0.00176847
AIVX     1  Mu1.0002  In1.008 Se1.017               1.51527065      0.05496449     -0.03542123     -0.00194691
AIVX     1  Mu1.0004  In1.010 Se1.017               1.59881489     -0.05677732      0.03572578     -0.00202841
AIVX     1  Mu1.0002  In1.007 Se1.018               1.61314637      0.04264195     -0.02578545     -0.00109954
AIVX     1  Mu1.0004  In1.008 Se1.018               1.93055828      0.11096207     -0.05807645     -0.00644428
AIVX     1  Mu1.0006  In1.008 Se1.018               2.09966747      0.06695940     -0.03210873     -0.00214998
AIVX     1  Mu1.0002  In1.010 Se1.018               1.35330530     -0.03811282      0.02778359     -0.00105891
AIVX     1  Mu1.0004  In1.007 Se1.019               2.01604535     -0.05185903      0.02589466     -0.00134287
AIVX     1  Mu1.0002  In1.009 Se1.019               1.45701862      0.07142461     -0.04751523     -0.00339376
AIVX     1  Mu1.0003  In1.009 Se1.019               1.54013612      0.05014097     -0.03163882     -0.00158640
AIVX     1  Mu1.0002  In1.010 Se1.020               1.48797029      0.06117225     -0.03984113     -0.00243717
BJAIP    1  Se1.017 In1.007 Se1.018 In1.008         2.60915093      0.06834727     -0.02619520     -0.00179037
BJAIP    1  Se1.018 In1.008 Se1.018 In1.008         2.68105326      0.10183199     -0.03798206     -0.00386779
BJAIP    1  Se1.019 In1.009 Se1.019 In1.009         2.39477115      0.06407934     -0.02675802     -0.00171464
BJAIP    1  Se1.017 In1.008 Se1.018 In1.010         2.34930986     -0.06618741      0.02817312     -0.00186471
BJAIP    1  Se1.019 In1.009 Se1.020 In1.010         2.42572282      0.06120904     -0.02523332     -0.00154451
--
 
   (Skipping property calculation,
    use PROP keyword to activate)
--
 
  Total CASPT2 energies:
::    CASPT2 Root  1     Total energy:   -225.12284150
 
  A NEW JOBIPH FILE NAMED 'JOBMIX' IS PREPARED.
********************************************************************************
forrtl: warning (528): IEEE_UNDERFLOW is signaling
--- Stop Module: caspt2 at Fri Jan 24 15:01:21 2025 /rc=_RC_ALL_IS_WELL_ ---
*** files: xmldump
    saved to directory /home/grierjones/DDCASPT2/ozone/ANO-RCC-VDZP/ozone_118.25

>>> EXPORT i = B

>>> EXPORT j = P

>>> IF (-FILE GMJ_e2_${i}_${j}.csv)

>>> COPY /tmp/ozone_118.25/GMJ_RHS_B_P.csv /home/grierjones/DDCASPT2/ozone/ANO-RCC-VDZP/ozone_118.25/GMJ_RHS_B_P.csv

>>> COPY /tmp/ozone_118.25/GMJ_IVECW_B_P.csv /home/grierjones/DDCASPT2/ozone/ANO-RCC-VDZP/ozone_118.25/GMJ_IVECW_B_P.csv

>>> COPY /tmp/ozone_118.25/GMJ_IVECX_B_P.csv /home/grierjones/DDCASPT2/ozone/ANO-RCC-VDZP/ozone_118.25/GMJ_IVECX_B_P.csv

>>> COPY /tmp/ozone_118.25/GMJ_IVECC2_B_P.csv /home/grierjones/DDCASPT2/ozone/ANO-RCC-VDZP/ozone_118.25/GMJ_IVECC2_B_P.csv

>>> COPY /tmp/ozone_118.25/GMJ_e2_B_P.csv /home/grierjones/DDCASPT2/ozone/ANO-RCC-VDZP/ozone_118.25/GMJ_e2_B_P.csv

>>> END FOREACH

>>> EXPORT j = M

>>> IF (-FILE GMJ_e2_${i}_${j}.csv)
(Skipped)

>>> END FOREACH

>>> END FOREACH

>>> EXPORT i = E

>>> EXPORT j = P

>>> IF (-FILE GMJ_e2_${i}_${j}.csv)

>>> COPY /tmp/ozone_118.25/GMJ_RHS_E_P.csv /home/grierjones/DDCASPT2/ozone/ANO-RCC-VDZP/ozone_118.25/GMJ_RHS_E_P.csv

>>> COPY /tmp/ozone_118.25/GMJ_IVECW_E_P.csv /home/grierjones/DDCASPT2/ozone/ANO-RCC-VDZP/ozone_118.25/GMJ_IVECW_E_P.csv

>>> COPY /tmp/ozone_118.25/GMJ_IVECX_E_P.csv /home/grierjones/DDCASPT2/ozone/ANO-RCC-VDZP/ozone_118.25/GMJ_IVECX_E_P.csv

>>> COPY /tmp/ozone_118.25/GMJ_IVECC2_E_P.csv /home/grierjones/DDCASPT2/ozone/ANO-RCC-VDZP/ozone_118.25/GMJ_IVECC2_E_P.csv

>>> COPY /tmp/ozone_118.25/GMJ_e2_E_P.csv /home/grierjones/DDCASPT2/ozone/ANO-RCC-VDZP/ozone_118.25/GMJ_e2_E_P.csv

>>> END FOREACH

>>> EXPORT j = M

>>> IF (-FILE GMJ_e2_${i}_${j}.csv)

>>> COPY /tmp/ozone_118.25/GMJ_RHS_E_M.csv /home/grierjones/DDCASPT2/ozone/ANO-RCC-VDZP/ozone_118.25/GMJ_RHS_E_M.csv

>>> COPY /tmp/ozone_118.25/GMJ_IVECW_E_M.csv /home/grierjones/DDCASPT2/ozone/ANO-RCC-VDZP/ozone_118.25/GMJ_IVECW_E_M.csv

>>> COPY /tmp/ozone_118.25/GMJ_IVECX_E_M.csv /home/grierjones/DDCASPT2/ozone/ANO-RCC-VDZP/ozone_118.25/GMJ_IVECX_E_M.csv

>>> COPY /tmp/ozone_118.25/GMJ_IVECC2_E_M.csv /home/grierjones/DDCASPT2/ozone/ANO-RCC-VDZP/ozone_118.25/GMJ_IVECC2_E_M.csv

>>> COPY /tmp/ozone_118.25/GMJ_e2_E_M.csv /home/grierjones/DDCASPT2/ozone/ANO-RCC-VDZP/ozone_118.25/GMJ_e2_E_M.csv

>>> END FOREACH

>>> END FOREACH

>>> EXPORT i = F

>>> EXPORT j = P

>>> IF (-FILE GMJ_e2_${i}_${j}.csv)

>>> COPY /tmp/ozone_118.25/GMJ_RHS_F_P.csv /home/grierjones/DDCASPT2/ozone/ANO-RCC-VDZP/ozone_118.25/GMJ_RHS_F_P.csv

>>> COPY /tmp/ozone_118.25/GMJ_IVECW_F_P.csv /home/grierjones/DDCASPT2/ozone/ANO-RCC-VDZP/ozone_118.25/GMJ_IVECW_F_P.csv

>>> COPY /tmp/ozone_118.25/GMJ_IVECX_F_P.csv /home/grierjones/DDCASPT2/ozone/ANO-RCC-VDZP/ozone_118.25/GMJ_IVECX_F_P.csv

>>> COPY /tmp/ozone_118.25/GMJ_IVECC2_F_P.csv /home/grierjones/DDCASPT2/ozone/ANO-RCC-VDZP/ozone_118.25/GMJ_IVECC2_F_P.csv

>>> COPY /tmp/ozone_118.25/GMJ_e2_F_P.csv /home/grierjones/DDCASPT2/ozone/ANO-RCC-VDZP/ozone_118.25/GMJ_e2_F_P.csv

>>> END FOREACH

>>> EXPORT j = M

>>> IF (-FILE GMJ_e2_${i}_${j}.csv)

>>> COPY /tmp/ozone_118.25/GMJ_RHS_F_M.csv /home/grierjones/DDCASPT2/ozone/ANO-RCC-VDZP/ozone_118.25/GMJ_RHS_F_M.csv

>>> COPY /tmp/ozone_118.25/GMJ_IVECW_F_M.csv /home/grierjones/DDCASPT2/ozone/ANO-RCC-VDZP/ozone_118.25/GMJ_IVECW_F_M.csv

>>> COPY /tmp/ozone_118.25/GMJ_IVECX_F_M.csv /home/grierjones/DDCASPT2/ozone/ANO-RCC-VDZP/ozone_118.25/GMJ_IVECX_F_M.csv

>>> COPY /tmp/ozone_118.25/GMJ_IVECC2_F_M.csv /home/grierjones/DDCASPT2/ozone/ANO-RCC-VDZP/ozone_118.25/GMJ_IVECC2_F_M.csv

>>> COPY /tmp/ozone_118.25/GMJ_e2_F_M.csv /home/grierjones/DDCASPT2/ozone/ANO-RCC-VDZP/ozone_118.25/GMJ_e2_F_M.csv

>>> END FOREACH

>>> END FOREACH

>>> EXPORT i = G

>>> EXPORT j = P

>>> IF (-FILE GMJ_e2_${i}_${j}.csv)

>>> COPY /tmp/ozone_118.25/GMJ_RHS_G_P.csv /home/grierjones/DDCASPT2/ozone/ANO-RCC-VDZP/ozone_118.25/GMJ_RHS_G_P.csv

>>> COPY /tmp/ozone_118.25/GMJ_IVECW_G_P.csv /home/grierjones/DDCASPT2/ozone/ANO-RCC-VDZP/ozone_118.25/GMJ_IVECW_G_P.csv

>>> COPY /tmp/ozone_118.25/GMJ_IVECX_G_P.csv /home/grierjones/DDCASPT2/ozone/ANO-RCC-VDZP/ozone_118.25/GMJ_IVECX_G_P.csv

>>> COPY /tmp/ozone_118.25/GMJ_IVECC2_G_P.csv /home/grierjones/DDCASPT2/ozone/ANO-RCC-VDZP/ozone_118.25/GMJ_IVECC2_G_P.csv

>>> COPY /tmp/ozone_118.25/GMJ_e2_G_P.csv /home/grierjones/DDCASPT2/ozone/ANO-RCC-VDZP/ozone_118.25/GMJ_e2_G_P.csv

>>> END FOREACH

>>> EXPORT j = M

>>> IF (-FILE GMJ_e2_${i}_${j}.csv)

>>> COPY /tmp/ozone_118.25/GMJ_RHS_G_M.csv /home/grierjones/DDCASPT2/ozone/ANO-RCC-VDZP/ozone_118.25/GMJ_RHS_G_M.csv

>>> COPY /tmp/ozone_118.25/GMJ_IVECW_G_M.csv /home/grierjones/DDCASPT2/ozone/ANO-RCC-VDZP/ozone_118.25/GMJ_IVECW_G_M.csv

>>> COPY /tmp/ozone_118.25/GMJ_IVECX_G_M.csv /home/grierjones/DDCASPT2/ozone/ANO-RCC-VDZP/ozone_118.25/GMJ_IVECX_G_M.csv

>>> COPY /tmp/ozone_118.25/GMJ_IVECC2_G_M.csv /home/grierjones/DDCASPT2/ozone/ANO-RCC-VDZP/ozone_118.25/GMJ_IVECC2_G_M.csv

>>> COPY /tmp/ozone_118.25/GMJ_e2_G_M.csv /home/grierjones/DDCASPT2/ozone/ANO-RCC-VDZP/ozone_118.25/GMJ_e2_G_M.csv

>>> END FOREACH

>>> END FOREACH

>>> EXPORT i = H

>>> EXPORT j = P

>>> IF (-FILE GMJ_e2_${i}_${j}.csv)

>>> COPY /tmp/ozone_118.25/GMJ_RHS_H_P.csv /home/grierjones/DDCASPT2/ozone/ANO-RCC-VDZP/ozone_118.25/GMJ_RHS_H_P.csv

>>> COPY /tmp/ozone_118.25/GMJ_IVECW_H_P.csv /home/grierjones/DDCASPT2/ozone/ANO-RCC-VDZP/ozone_118.25/GMJ_IVECW_H_P.csv

>>> COPY /tmp/ozone_118.25/GMJ_IVECX_H_P.csv /home/grierjones/DDCASPT2/ozone/ANO-RCC-VDZP/ozone_118.25/GMJ_IVECX_H_P.csv

>>> COPY /tmp/ozone_118.25/GMJ_IVECC2_H_P.csv /home/grierjones/DDCASPT2/ozone/ANO-RCC-VDZP/ozone_118.25/GMJ_IVECC2_H_P.csv

>>> COPY /tmp/ozone_118.25/GMJ_e2_H_P.csv /home/grierjones/DDCASPT2/ozone/ANO-RCC-VDZP/ozone_118.25/GMJ_e2_H_P.csv

>>> END FOREACH

>>> EXPORT j = M

>>> IF (-FILE GMJ_e2_${i}_${j}.csv)

>>> COPY /tmp/ozone_118.25/GMJ_RHS_H_M.csv /home/grierjones/DDCASPT2/ozone/ANO-RCC-VDZP/ozone_118.25/GMJ_RHS_H_M.csv

>>> COPY /tmp/ozone_118.25/GMJ_IVECW_H_M.csv /home/grierjones/DDCASPT2/ozone/ANO-RCC-VDZP/ozone_118.25/GMJ_IVECW_H_M.csv

>>> COPY /tmp/ozone_118.25/GMJ_IVECX_H_M.csv /home/grierjones/DDCASPT2/ozone/ANO-RCC-VDZP/ozone_118.25/GMJ_IVECX_H_M.csv

>>> COPY /tmp/ozone_118.25/GMJ_IVECC2_H_M.csv /home/grierjones/DDCASPT2/ozone/ANO-RCC-VDZP/ozone_118.25/GMJ_IVECC2_H_M.csv

>>> COPY /tmp/ozone_118.25/GMJ_e2_H_M.csv /home/grierjones/DDCASPT2/ozone/ANO-RCC-VDZP/ozone_118.25/GMJ_e2_H_M.csv

>>> END FOREACH

>>> END FOREACH

>>> EXPORT i = A

>>> IF (-FILE GMJ_e2_$i.csv)

>>> COPY /tmp/ozone_118.25/GMJ_RHS_A.csv /home/grierjones/DDCASPT2/ozone/ANO-RCC-VDZP/ozone_118.25/GMJ_RHS_A.csv

>>> COPY /tmp/ozone_118.25/GMJ_IVECW_A.csv /home/grierjones/DDCASPT2/ozone/ANO-RCC-VDZP/ozone_118.25/GMJ_IVECW_A.csv

>>> COPY /tmp/ozone_118.25/GMJ_IVECX_A.csv /home/grierjones/DDCASPT2/ozone/ANO-RCC-VDZP/ozone_118.25/GMJ_IVECX_A.csv

>>> COPY /tmp/ozone_118.25/GMJ_IVECC2_A.csv /home/grierjones/DDCASPT2/ozone/ANO-RCC-VDZP/ozone_118.25/GMJ_IVECC2_A.csv

>>> COPY /tmp/ozone_118.25/GMJ_e2_A.csv /home/grierjones/DDCASPT2/ozone/ANO-RCC-VDZP/ozone_118.25/GMJ_e2_A.csv

>>> END FOREACH

>>> EXPORT i = C

>>> IF (-FILE GMJ_e2_$i.csv)

>>> COPY /tmp/ozone_118.25/GMJ_RHS_C.csv /home/grierjones/DDCASPT2/ozone/ANO-RCC-VDZP/ozone_118.25/GMJ_RHS_C.csv

>>> COPY /tmp/ozone_118.25/GMJ_IVECW_C.csv /home/grierjones/DDCASPT2/ozone/ANO-RCC-VDZP/ozone_118.25/GMJ_IVECW_C.csv

>>> COPY /tmp/ozone_118.25/GMJ_IVECX_C.csv /home/grierjones/DDCASPT2/ozone/ANO-RCC-VDZP/ozone_118.25/GMJ_IVECX_C.csv

>>> COPY /tmp/ozone_118.25/GMJ_IVECC2_C.csv /home/grierjones/DDCASPT2/ozone/ANO-RCC-VDZP/ozone_118.25/GMJ_IVECC2_C.csv

>>> COPY /tmp/ozone_118.25/GMJ_e2_C.csv /home/grierjones/DDCASPT2/ozone/ANO-RCC-VDZP/ozone_118.25/GMJ_e2_C.csv

>>> END FOREACH

>>> EXPORT i = D

>>> IF (-FILE GMJ_e2_$i.csv)

>>> COPY /tmp/ozone_118.25/GMJ_RHS_D.csv /home/grierjones/DDCASPT2/ozone/ANO-RCC-VDZP/ozone_118.25/GMJ_RHS_D.csv

>>> COPY /tmp/ozone_118.25/GMJ_IVECW_D.csv /home/grierjones/DDCASPT2/ozone/ANO-RCC-VDZP/ozone_118.25/GMJ_IVECW_D.csv

>>> COPY /tmp/ozone_118.25/GMJ_IVECX_D.csv /home/grierjones/DDCASPT2/ozone/ANO-RCC-VDZP/ozone_118.25/GMJ_IVECX_D.csv

>>> COPY /tmp/ozone_118.25/GMJ_IVECC2_D.csv /home/grierjones/DDCASPT2/ozone/ANO-RCC-VDZP/ozone_118.25/GMJ_IVECC2_D.csv

>>> COPY /tmp/ozone_118.25/GMJ_e2_D.csv /home/grierjones/DDCASPT2/ozone/ANO-RCC-VDZP/ozone_118.25/GMJ_e2_D.csv

>>> END FOREACH

.########################.
.# Non-zero return code #.
.########################.

    Timing: Wall=3.67 User=2.62 System=0.96
********************************************
*** WorkDir at /tmp/ozone_118.25 cleaned ***
********************************************
