[Molden Format]
[N_Atoms]
                     2
[Atoms] (AU)
C1          1      6           0.00000000      0.00000000      0.00000000
F2          2      9           0.00000000      0.00000000      4.15739747
[Charge] (Mulliken)
  0.449437903348020     
 -0.449437903348063     
[GTO] (AU)
   1
   s  14
  5.055750100E+04  1.128874000E-04
  7.524785600E+03  5.295373000E-04
  1.694327600E+03  2.450038300E-03
  4.728227900E+02  1.005398470E-02
  1.517107500E+02  3.545398060E-02
  5.391874600E+01  1.044071086E-01
  2.065931100E+01  2.412894918E-01
  8.383976000E+00  3.834225483E-01
  3.577015000E+00  3.078514393E-01
  1.547118000E+00  6.872442990E-02
  6.130130000E-01  2.224445000E-04
  2.460680000E-01  1.976748900E-03
  9.908700000E-02  2.057859400E-03
  3.468000000E-02  4.182020000E-04
   s  14
  5.055750100E+04 -2.507420000E-05
  7.524785600E+03 -1.175945000E-04
  1.694327600E+03 -5.456275000E-04
  4.728227900E+02 -2.245077100E-03
  1.517107500E+02 -8.043471800E-03
  5.391874600E+01 -2.442588710E-02
  2.065931100E+01 -6.136791180E-02
  8.383976000E+00 -1.177767835E-01
  3.577015000E+00 -1.550487783E-01
  1.547118000E+00 -1.933316860E-02
  6.130130000E-01  3.996930678E-01
  2.460680000E-01  5.589420949E-01
  9.908700000E-02  1.711195023E-01
  3.468000000E-02  7.456244600E-03
   p   9
  8.333315500E+01  1.344656000E-03
  1.955761100E+01  1.023555500E-02
  6.080365000E+00  4.520067100E-02
  2.179317000E+00  1.410756198E-01
  8.651500000E-01  3.047388085E-01
  3.619440000E-01  3.995281011E-01
  1.547400000E-01  2.719163432E-01
  6.542900000E-02  5.857669330E-02
  2.290000000E-02 -1.263813000E-04
 
   2
   s  14
  1.031094600E+05  1.713099991E-04
  1.528100700E+04  7.123999962E-04
  3.441539200E+03  2.990479984E-03
  9.670948300E+02  1.164036994E-02
  3.140353400E+02  3.968642979E-02
  1.134423000E+02  1.128546094E-01
  4.464472700E+01  2.473650687E-01
  1.894287400E+01  3.672702681E-01
  8.532743000E+00  2.896286985E-01
  3.919401000E+00  7.786681959E-02
  1.568157000E+00  4.562139976E-03
  6.232900000E-01  2.468879987E-03
  2.408610000E-01  1.106309994E-03
  8.430100000E-02  1.739699991E-04
   s  14
  1.031094600E+05 -4.044999995E-05
  1.528100700E+04 -1.682299998E-04
  3.441539200E+03 -7.084299991E-04
  9.670948300E+02 -2.767999996E-03
  3.140353400E+02 -9.611379987E-03
  1.134423000E+02 -2.833957996E-02
  4.464472700E+01 -6.839343991E-02
  1.894287400E+01 -1.237379298E-01
  8.532743000E+00 -1.512859698E-01
  3.919401000E+00 -9.099909988E-03
  1.568157000E+00  3.716257695E-01
  6.232900000E-01  5.500214393E-01
  2.408610000E-01  2.092318697E-01
  8.430100000E-02  8.074639989E-03
   p   9
  2.453302900E+02  1.024860004E-03
  5.691900500E+01  8.344290032E-03
  1.760456800E+01  4.078927016E-02
  6.274995000E+00  1.351370605E-01
  2.447030000E+00  2.798830811E-01
  9.950600000E-01  3.597966414E-01
  4.039730000E-01  3.055347412E-01
  1.548100000E-01  1.354703905E-01
  5.418400000E-02  2.804449011E-02
 
[MO]
Sym=     1a  
Ene=   -26.0670
Spin= Alpha
Occup=    1.00000
   1        -0.00000737
   2        -0.00011380
   3        -0.00000000
   4         0.00000000
   5        -0.00010594
   6         0.99999772
   7        -0.00271246
   8         0.00000000
   9        -0.00000000
  10        -0.00030379
Sym=     1a  
Ene=   -26.0650
Spin= Beta
Occup=    1.00000
   1        -0.00000650
   2        -0.00010291
   3        -0.00000000
   4         0.00000000
   5        -0.00009601
   6         0.99999734
   7        -0.00280061
   8        -0.00000000
   9        -0.00000000
  10        -0.00029963
Sym=     2a  
Ene=   -11.5240
Spin= Alpha
Occup=    1.00000
   1         0.99999887
   2        -0.00231507
   3         0.00000000
   4        -0.00000000
   5         0.00069406
   6        -0.00004193
   7        -0.00033565
   8         0.00000000
   9         0.00000000
  10         0.00013922
Sym=     2a  
Ene=   -11.5010
Spin= Beta
Occup=    1.00000
   1         0.99998893
   2        -0.00466017
   3         0.00000000
   4        -0.00000000
   5         0.00057690
   6        -0.00003234
   7        -0.00019555
   8         0.00000000
   9         0.00000000
  10        -0.00003726
Sym=     3a  
Ene=    -1.3966
Spin= Alpha
Occup=    1.00000
   1        -0.00143931
   2         0.04585984
   3        -0.00000000
   4        -0.00000000
   5         0.03148474
   6         0.00223260
   7         0.99162418
   8         0.00000000
   9        -0.00000000
  10        -0.01677876
Sym=     3a  
Ene=    -1.3879
Spin= Beta
Occup=    1.00000
   1        -0.00132613
   2         0.03709318
   3        -0.00000000
   4        -0.00000000
   5         0.03169185
   6         0.00235250
   7         0.99258489
   8         0.00000000
   9        -0.00000000
  10        -0.01385240
Sym=     4a  
Ene=    -0.8722
Spin= Alpha
Occup=    1.00000
   1         0.00157749
   2         0.98416398
   3        -0.00000000
   4         0.00000000
   5        -0.01345654
   6        -0.00388951
   7        -0.10842260
   8        -0.00000000
   9         0.00000000
  10        -0.09961064
Sym=     4a  
Ene=    -0.7587
Spin= Beta
Occup=    1.00000
   1        -0.00350817
   2        -0.97549870
   3         0.00000000
   4         0.00000000
   5         0.05249081
   6         0.00346615
   7         0.09313397
   8        -0.00000000
   9        -0.00000000
  10         0.13528408
Sym=     5a  
Ene=    -0.5476
Spin= Alpha
Occup=    1.00000
   1        -0.00000000
   2         0.00000000
   3         0.53391802
   4         0.69753507
   5        -0.00000000
   6         0.00000000
   7         0.00000000
   8         0.26391696
   9         0.34479326
  10        -0.00000000
Sym=     5a  
Ene=    -0.5064
Spin= Beta
Occup=    1.00000
   1        -0.00000000
   2        -0.00000000
   3         0.04173632
   4        -0.03194646
   5         0.00000000
   6        -0.00000000
   7        -0.00000000
   8         0.79080381
   9        -0.60530921
  10        -0.00000000
Sym=     6a  
Ene=    -0.5078
Spin= Alpha
Occup=    1.00000
   1        -0.00000000
   2        -0.00000000
   3         0.04781275
   4        -0.03659757
   5         0.00000000
   6        -0.00000000
   7        -0.00000000
   8         0.79014421
   9        -0.60480433
  10        -0.00000000
Sym=     6a  
Ene=    -0.5055
Spin= Beta
Occup=    1.00000
   1         0.00000000
   2         0.00000000
   3        -0.02470318
   4        -0.03227337
   5        -0.00000000
   6        -0.00000000
   7        -0.00000000
   8        -0.60602451
   9        -0.79173831
  10         0.00000000
Sym=     7a  
Ene=    -0.5003
Spin= Alpha
Occup=    1.00000
   1         0.00000000
   2         0.00000000
   3         0.29220173
   4         0.38174579
   5        -0.00000000
   6         0.00000000
   7         0.00000000
   8        -0.54845067
   9        -0.71652120
  10         0.00000000
Sym=     7a  
Ene=    -0.4149
Spin= Beta
Occup=    1.00000
   1         0.00814005
   2         0.17724239
   3         0.00000000
   4        -0.00000000
   5        -0.49811626
   6         0.00450863
   7         0.07521939
   8         0.00000000
   9        -0.00000000
  10         0.80301718
Sym=     8a  
Ene=    -0.4363
Spin= Alpha
Occup=    1.00000
   1         0.00813011
   2         0.17735912
   3         0.00000000
   4        -0.00000000
   5        -0.44893294
   6         0.00403162
   7         0.07029975
   8         0.00000000
   9        -0.00000000
  10         0.83606298
Sym=     8a  
Ene=     0.0101
Spin= Beta
Occup=    0.00000
   1         0.00000000
   2         0.00000000
   3        -0.79406744
   4         0.60780731
   5         0.00000000
   6        -0.00000000
   7        -0.00000000
   8         0.08315263
   9        -0.06364796
  10         0.00000000
Sym=     9a  
Ene=    -0.0212
Spin= Alpha
Occup=    0.00000
   1         0.00000000
   2         0.00000000
   3        -0.79372474
   4         0.60754499
   5         0.00000000
   6        -0.00000000
   7        -0.00000000
   8         0.08920286
   9        -0.06827903
  10         0.00000000
Sym=     9a  
Ene=     0.0267
Spin= Beta
Occup=    0.00000
   1         0.00596831
   2         0.18418755
   3         0.00000000
   4        -0.00000000
   5         0.88473564
   6        -0.00933778
   7        -0.13780378
   8         0.00000000
   9         0.00000000
  10         0.60914817
Sym=    10a  
Ene=     0.0009
Spin= Alpha
Occup=    0.00000
   1         0.00504195
   2         0.12724685
   3         0.00000000
   4        -0.00000000
   5         0.91209830
   6        -0.00937789
   7        -0.13612835
   8         0.00000000
   9         0.00000000
  10         0.57025136
Sym=    10a  
Ene=     0.0723
Spin= Beta
Occup=    0.00000
   1         0.00000000
   2         0.00000000
   3         0.60814476
   4         0.79450831
   5        -0.00000000
   6         0.00000000
   7         0.00000000
   8        -0.05643220
   9        -0.07372562
  10         0.00000000
