   This run of MOLCAS is using the pymolcas driver

                             OPE
                             OPE          NMOL  CASOP  ENMOLC A   SO
                 OPE        NMOLC        AS  OP EN  MO LC     AS  OP
                OPENM       OL CA        SO  PE NM  OL CA     SOP EN
                OP EN      MO   LC       AS  OP ENMOL  CASO   PENMOL
                OP  EN     MO   LC       AS  OP EN     MO     LC ASO
               OP   E  NMOL  C  AS       OP  EN MO     LC     AS  OP
               OP  E   NMO   LC AS        OPEN  MO     LCASOP EN   M
               O  PEN   MO  LCA  SO
            OPE   NMO   L   CAS    OP
        OPENMOL  CASOP     ENMOL   CASOPE
     OPENMOLCA   SOPENMOLCASOPEN   MOLCASOPE
    OPENMOLCAS   OP           EN   MOL    CAS
    OPENMOLCAS       OP  ENM        O     LCA
    OPENMOLCAS    OPEN  MOLCASO     P  E  NMO
    OPENMOLCAS     OP               E  N  MOL
    OPENMOLCA   SO           PENM   O  L  CAS    OPEN    MO    LCAS
    OPENMOLCA   SOP           ENM   O  L  CAS   OP  EN  MOLC  AS   O
    OPENMOLCA   SOPE           NM      O  LCA   S      OP  EN MO
    OPENMOLC                AS         O  PEN   M      OL  CA  SOPE
    OPENMO        LCASOPE  NMOL        C  ASO   P      ENMOLC     AS
    OPE     NMO      LCA  SO     P     E   NM   OL  CA SO  PE N   MO
          OPENMOLCA            SOPE   NMO        LCAS  O    P  ENMO
     OPENMOLCASOPENMOLCASOPENMOLCASOPENMOLCA
        OPENMOLCASOPENMOLCASOPENMOLCASOPE
            OPENMOLCASOPENMOLCASOPENM
               OPENMOLCASOPENMOLCA        version: ea724fe96-dirty
                   OPENMOLCASO
                       OPE                tag:

 OpenMolcas is free software; you can redistribute it and/or modify it
 under the terms of the GNU Lesser General Public License version 2.1.
 OpenMolcas is distributed in the hope that it will be useful, but it
 is provided "as is" and without any express or implied warranties.
 For more details see the full text of the license in the file
 LICENSE or in <http://www.gnu.org/licenses/>.

                 Copyright (C) The OpenMolcas Authors
           For the author list and the recommended citation,
                   consult the file CONTRIBUTORS.md

           *************************************************
           * pymolcas version py2.28                       *
           *   build c4a6d18ded8cb6cad61d2372a9abd97c      *
           *   (after the EMIL interpreter by V. Veryazov) *
           *************************************************

configuration info
------------------
C Compiler ID: Intel
C flags: -std=gnu99
Fortran Compiler ID: Intel
Fortran flags: -fpp -i8 -r8 -heap-arrays
Definitions: _MOLCAS_;_I8_;_LINUX_
Parallel: OFF (GA=OFF)


   --------------------------------------------------------------------------------
  |
  |              Project: H6_1.04
  |       Submitted from: /home/grierjones/DDCASPT2/hydrogen_comps/H6_chain/H6_1.04
  |         Scratch area: /tmp/H6_1.04
  |      Save outputs to: /home/grierjones/DDCASPT2/hydrogen_comps/H6_chain/H6_1.04
  |               Molcas: /home/grierjones/Test/build
  |
  | Scratch area is empty
  |
  |       MOLCAS_DRIVER = /usr/local/pymolcas
  | MOLCAS_KEEP_WORKDIR = NO
  |  MOLCAS_NEW_WORKDIR = YES
  |       MOLCAS_NPROCS = 1
  |        MOLCAS_PRINT = NORMAL
  |       MOLCAS_SOURCE = /home/grierjones/Test/build
  |    MOLCAS_STRUCTURE = 0
  |
   --------------------------------------------------------------------------------

++ ---------   Input file   ---------

&GATEWAY
coord=H6_1.04.xyz
Basis = ANO-RCC-VDZP
Group = nosymm
Expert
End of Input

&SEWARD
End of Input

&SCF

>>> COPY $WorkDir/H6_1.04.scf.h5 $CurrDir/

&RASSCF
Title= RASSCF
FileOrb
/home/grierjones/DDCASPT2/hydrogen_comps/H6_chain/H6_1.01/H6_1.01.RasOrb
NACTEL
6 0 0
Inactive
0
RAS2
6
Symmetry
1
Spin
1
orblisting
all
ITERation
200 100
CIMX
200
SDAV
500

>>> COPY $WorkDir/H6_1.04.rasscf.h5 $CurrDir/

>>> COPY $WorkDir/GMJ_Fock_MO.csv $CurrDir/H6_1.04.GMJ_Fock_MO.csv

>>> COPY $WorkDir/GMJ_PT2_Fock_MO.csv $CurrDir/H6_1.04.GMJ_PT2_Fock_MO.csv

&MOTRA
Frozen=0
LUMORB

>>> COPY $WorkDir/GMJ_one_int_indx.csv $CurrDir/H6_1.04.GMJ_one_int_indx.csv

>>> COPY $WorkDir/GMJ_one_int.csv $CurrDir/H6_1.04.GMJ_one_int.csv

>>> COPY $WorkDir/GMJ_two_int_indx.csv $CurrDir/H6_1.04.GMJ_two_int_indx.csv

>>> COPY $WorkDir/GMJ_two_int.csv $CurrDir/H6_1.04.GMJ_two_int.csv

&CASPT2
Frozen
0

>>> FOREACH i IN (B,E,F,G,H)

  >>> FOREACH j IN (P,M)

    >>> IF (-FILE GMJ_e2_${i}_${j}.csv)

      >>> COPY $WorkDir/GMJ_RHS_${i}_${j}.csv $CurrDir/GMJ_RHS_${i}_${j}.csv

      >>> COPY $WorkDir/GMJ_IVECW_${i}_${j}.csv $CurrDir/GMJ_IVECW_${i}_${j}.csv

      >>> COPY $WorkDir/GMJ_IVECX_${i}_${j}.csv $CurrDir/GMJ_IVECX_${i}_${j}.csv

      >>> COPY $WorkDir/GMJ_IVECC2_${i}_${j}.csv $CurrDir/GMJ_IVECC2_${i}_${j}.csv

      >>> COPY $WorkDir/GMJ_e2_${i}_${j}.csv $CurrDir/GMJ_e2_${i}_${j}.csv

    >>> END IF

  >>> END FOREACH

>>> END FOREACH

>>> FOREACH i IN (A,C,D)

  >>> IF (-FILE GMJ_e2_$i.csv)

    >>> COPY $WorkDir/GMJ_RHS_$i.csv $CurrDir/GMJ_RHS_$i.csv

    >>> COPY $WorkDir/GMJ_IVECW_$i.csv $CurrDir/GMJ_IVECW_$i.csv

    >>> COPY $WorkDir/GMJ_IVECX_$i.csv $CurrDir/GMJ_IVECX_$i.csv

    >>> COPY $WorkDir/GMJ_IVECC2_$i.csv $CurrDir/GMJ_IVECC2_$i.csv

    >>> COPY $WorkDir/GMJ_e2_$i.csv $CurrDir/GMJ_e2_$i.csv

  >>> END IF

>>> END FOREACH

-- ----------------------------------

--- Start Module: gateway at Tue Nov 12 16:13:42 2024 ---
 
()()()()()()()()()()()()()()()()()()()()()()()()()()()()()()()()()()()()()()()()()()()()()()()()()()

                                              &GATEWAY

                                   only a single process is used
                       available to each process: 2.0 GB of memory, 1 thread?
()()()()()()()()()()()()()()()()()()()()()()()()()()()()()()()()()()()()()()()()()()()()()()()()()()
 
 ###############################################################################
 ###############################################################################
 ###                                                                         ###
 ###                                                                         ###
 ###                                                                         ###
 ###    WARNING: EXPERT option is ON!                                        ###
 ###                                                                         ###
 ###                                                                         ###
 ###############################################################################
 ###############################################################################
 
++    Symmetry information:
      ---------------------
 
                    Character Table for C1 
 
                             E  
                    a        1  x, y, xy, Rz, z, xz, Ry, yz, Rx, I
--
 
 
++    Basis set information:
      ----------------------
 
 
      Basis set label: H.ANO-RCC...2S1P.
 
      Electronic valence basis set:
      ------------------
      Associated Effective Charge   1.000000 au
      Associated Actual Charge      1.000000 au
      Nuclear Model: Point charge
 
      Shell  nPrim  nBasis  Cartesian Spherical Contaminant
         s       8       2        X                  
         p       4       1        X                  
--
 
 
++    Molecular structure info:
      -------------------------
 
                    ************************************************ 
                    **** Cartesian Coordinates / Bohr, Angstrom **** 
                    ************************************************ 
 
     Center  Label                x              y              z                     x              y              z
        1      H1               0.000000       0.000000       0.000000              0.000000       0.000000       0.000000
        2      H2               0.000000       0.000000       1.958444              0.000000       0.000000       1.036364
        3      H3               0.000000       0.000000       3.916886              0.000000       0.000000       2.072727
        4      H4               0.000000       0.000000       5.875330              0.000000       0.000000       3.109091
        5      H5               0.000000       0.000000       7.833775              0.000000       0.000000       4.145455
        6      H6               0.000000       0.000000       9.792217              0.000000       0.000000       5.181818
 
                    *************************************** 
                    *    InterNuclear Distances / Bohr    * 
                    *************************************** 
 
               1 H1            2 H2            3 H3            4 H4            5 H5            6 H6    
    1 H1       0.000000
    2 H2       1.958444        0.000000
    3 H3       3.916886        1.958442        0.000000
    4 H4       5.875330        3.916886        1.958444        0.000000
    5 H5       7.833775        5.875330        3.916888        1.958444        0.000000
    6 H6       9.792217        7.833773        5.875330        3.916886        1.958442        0.000000
 
                    ******************************************* 
                    *    InterNuclear Distances / Angstrom    * 
                    ******************************************* 
 
               1 H1            2 H2            3 H3            4 H4            5 H5            6 H6    
    1 H1       0.000000
    2 H2       1.036364        0.000000
    3 H3       2.072727        1.036363        0.000000
    4 H4       3.109091        2.072727        1.036364        0.000000
    5 H5       4.145455        3.109091        2.072728        1.036364        0.000000
    6 H6       5.181818        4.145454        3.109091        2.072727        1.036363        0.000000
 
                    ************************************** 
                    *    Valence Bond Angles / Degree    * 
                    ************************************** 
                          Atom centers                 Phi
                      1 H1       2 H2       3 H3       180.00
                      2 H2       3 H3       4 H4       180.00
                      3 H3       4 H4       5 H5       180.00
                      4 H4       5 H5       6 H6       180.00
--
 
 
            Nuclear Potential Energy              4.44230352 au
 
 ###############################################################################
 ###############################################################################
 ###                                                                         ###
 ###                                                                         ###
 ###    There were warnings during the execution                             ###
 ###    Please, check the output with care!                                  ###
 ###                                                                         ###
 ###                                                                         ###
 ###############################################################################
 ###############################################################################
--- Stop Module: gateway at Tue Nov 12 16:13:42 2024 /rc=_RC_ALL_IS_WELL_ ---
*** files: xmldump
    saved to directory /home/grierjones/DDCASPT2/hydrogen_comps/H6_chain/H6_1.04

--- Start Module: seward at Tue Nov 12 16:13:42 2024 ---
 
()()()()()()()()()()()()()()()()()()()()()()()()()()()()()()()()()()()()()()()()()()()()()()()()()()

                                              &SEWARD

                                   only a single process is used
                       available to each process: 2.0 GB of memory, 1 thread?
()()()()()()()()()()()()()()()()()()()()()()()()()()()()()()()()()()()()()()()()()()()()()()()()()()
 
 ###############################################################################
 ###############################################################################
 ###                                                                         ###
 ###                                                                         ###
 ###                                                                         ###
 ###    WARNING: EXPERT option is ON!                                        ###
 ###                                                                         ###
 ###                                                                         ###
 ###############################################################################
 ###############################################################################
               SEWARD will generate:
                  Multipole Moment integrals up to order  2
                  Kinetic Energy integrals
                  Nuclear Attraction integrals (point charge)
                  One-Electron Hamiltonian integrals
                  Velocity integrals
                  Relativistic Douglas-Kroll-Hess integrals:
                    - Parametrization         : EXP
                    - DKH order of Hamiltonian: 2
                    - DKH order of Properties : 0
                         - multipole moment operators
                         - electric potential operators
                         - contact operators
                  Atomic mean-field integrals
                  Two-Electron Repulsion integrals
 
                   Integrals are discarded if absolute value <: 0.10E-13
                   Integral cutoff threshold is set to       <: 0.10E-15
 
            Nuclear Potential Energy              4.44230352 au
 
 
      Basis set specifications :
      Symmetry species         a  
      Basis functions           30
 
 
  Input file to MOLDEN was generated!
 
 ###############################################################################
 ###############################################################################
 ###                                                                         ###
 ###                                                                         ###
 ###    There were warnings during the execution                             ###
 ###    Please, check the output with care!                                  ###
 ###                                                                         ###
 ###                                                                         ###
 ###############################################################################
 ###############################################################################
--- Stop Module: seward at Tue Nov 12 16:13:42 2024 /rc=_RC_ALL_IS_WELL_ ---
*** files: H6_1.04.GssOrb H6_1.04.guessorb.h5 H6_1.04.guessorb.molden xmldump
    saved to directory /home/grierjones/DDCASPT2/hydrogen_comps/H6_chain/H6_1.04

*** symbolic link created: INPORB -> H6_1.04.GssOrb
--- Start Module: scf at Tue Nov 12 16:13:42 2024 ---
 
()()()()()()()()()()()()()()()()()()()()()()()()()()()()()()()()()()()()()()()()()()()()()()()()()()

                                                &SCF

                                   only a single process is used
                       available to each process: 2.0 GB of memory, 1 thread?
()()()()()()()()()()()()()()()()()()()()()()()()()()()()()()()()()()()()()()()()()()()()()()()()()()
 
++    Input section:
      --------------
 
      Header of the integral files:
      
       Integrals generated by seward 4.2.0  , Tue Nov 12 16:13:42 2024
 
 
      Cartesian coordinates in Angstrom:
      -----------------------------------------------------
      No.  Label        X            Y            Z        
      -----------------------------------------------------
       1   H1         0.00000000   0.00000000   0.00000000
       2   H2         0.00000000   0.00000000   1.03636400
       3   H3         0.00000000   0.00000000   2.07272700
       4   H4         0.00000000   0.00000000   3.10909100
       5   H5         0.00000000   0.00000000   4.14545500
       6   H6         0.00000000   0.00000000   5.18181800
      -----------------------------------------------------
      Nuclear repulsion energy =    4.44230352
--
 
++    Orbital specifications:
      -----------------------
 
      Symmetry species               1
                                     a
      Frozen orbitals                0
      Occupied orbitals              3
      Secondary orbitals            27
      Deleted orbitals               0
      Total number of orbitals      30
      Number of basis functions     30
--
 
      Molecular charge                           0.000
 
++    Optimization specifications:
      ----------------------------
 
      SCF Algorithm: Conventional
      Minimized density differences are used
      Number of density matrices in core                5
      Maximum number of NDDO SCF iterations           400
      Maximum number of HF SCF iterations             400
      Threshold for SCF energy change            0.10E-08
      Threshold for density matrix               0.10E-03
      Threshold for Fock matrix                  0.15E-03
      Threshold for linear dependence            0.10E-08
      Threshold at which DIIS is turned on       0.15E+00
      Threshold at which QNR/C2DIIS is turned on 0.75E-01
      Threshold for Norm(delta) (QNR/C2DIIS)     0.20E-04
      DIIS extrapolation of the SCF procedure
      All orbitals punched on: SCFORB
--
 
      Input vectors read from INPORB
      Orbital file label: *Guess orbitals
 
 
++ Convergence information
                                   SCF        iterations: Energy and convergence statistics
 
Iter     Tot. SCF        One-elec.       Two-elec.     Energy      Max Dij or  Max Fij      DNorm      TNorm      AccCon     Time
         Energy          Energy          Energy        Change      Delta Norm                                                in Sec.
   1    -3.167556307   -11.888540665     4.278680839   0.00E+00    0.21E+00*   0.13E+00*    0.31E+01   0.11E+02   None         0.
   2    -3.228862888   -12.074983155     4.403816749  -0.61E-01*   0.38E-01*   0.12E-01*    0.13E+01   0.11E+02   EDIIS        0.
   3    -3.230905079   -12.059522563     4.386313964  -0.20E-02*   0.10E-01*   0.47E-02*    0.21E+00   0.11E+02   c2DIIS       0.
   4    -3.231063967   -12.062132262     4.388764777  -0.16E-03*   0.20E-02*   0.92E-03*    0.47E-01   0.11E+02   QNRc2DIIS    0.
   5    -3.231071807   -12.061575691     4.388200365  -0.78E-05*   0.13E-02*   0.27E-03*    0.34E-02   0.11E+02   QNRc2DIIS    0.
   6    -3.231073314   -12.061664567     4.388287735  -0.15E-05*   0.19E-04    0.11E-04     0.52E-03   0.11E+02   QNRc2DIIS    0.
   7    -3.231073315   -12.061652858     4.388276025  -0.95E-09    0.65E-05    0.24E-05     0.67E-04   0.11E+02   QNRc2DIIS    0.
 
       Convergence after  7 Macro Iterations
--
 
 *****************************************************************************************************************************
 *                                                                                                                           *
 *                                             SCF/KS-DFT Program, Final results                                             *
 *                                                                                                                           *
 *                                                                                                                           *
 *                                                                                                                           *
 *                                                       Final Results                                                       *
 *                                                                                                                           *
 *****************************************************************************************************************************
 
::    Total SCF energy                                 -3.2310733150
      One-electron energy                             -12.0616528584
      Two-electron energy                               4.3882760247
      Nuclear repulsion energy                          4.4423035186
      Kinetic energy (interpolated)                     2.9168396844
      Virial theorem                                    1.1077308542
      Total spin, S(S+1)                                0.0000000000
      Total spin, S                                     0.0000000000
      Max non-diagonal density matrix element           0.0000072875
      Max non-diagonal Fock matrix element              0.0000008055
 
 
      All orbitals with orbital energies smaller than  E(LUMO)+0.5 are printed
 
++    Molecular orbitals:
      -------------------
 
      Title: SCF orbitals

      Molecular orbitals for symmetry species 1: a  
 
          Orbital            1         2         3         4         5         6         7    
          Energy           -0.6840   -0.5675   -0.3910    0.0400    0.1826    0.2784    0.3033
          Occ. No.          2.0000    2.0000    2.0000    0.0000    0.0000    0.0000    0.0000
 
        1 H1     1s         0.1867   -0.3374    0.4285   -0.8662    0.6335    1.1329   -0.2044
        2 H1     2s         0.0094    0.0013    0.0372   -0.4856    0.6958    0.6889   -0.7145
        3 H1     2px       -0.0000    0.0000   -0.0000    0.0000   -0.0000    0.0000    0.0000
        4 H1     2py       -0.0000    0.0000   -0.0000    0.0000   -0.0000   -0.0000    0.0000
        5 H1     2pz        0.0175   -0.0220    0.0116    0.0002   -0.0108    0.0235   -0.0219
        6 H2     1s         0.2485   -0.4116    0.3499    0.6072   -1.0465   -1.2729    0.6890
        7 H2     2s        -0.0432   -0.0041    0.1044    0.2897   -0.4353   -1.0224    0.2605
        8 H2     2px       -0.0000    0.0000    0.0000    0.0000   -0.0000    0.0000    0.0000
        9 H2     2py       -0.0000    0.0000    0.0000    0.0000   -0.0000    0.0000    0.0000
       10 H2     2pz        0.0086    0.0109   -0.0361    0.0160    0.0295    0.0658   -0.1191
       11 H3     1s         0.3683   -0.0845   -0.4851    0.5478    0.3352    0.5734   -1.2012
       12 H3     2s        -0.0250    0.0508   -0.1074    0.1857    0.3617   -0.0093   -0.8373
       13 H3     2px        0.0000    0.0000    0.0000    0.0000   -0.0000    0.0000    0.0000
       14 H3     2py        0.0000   -0.0000    0.0000    0.0000   -0.0000    0.0000    0.0000
       15 H3     2pz        0.0066    0.0272   -0.0249   -0.0314    0.0103    0.0330   -0.0685
       16 H4     1s         0.3683    0.0845   -0.4851   -0.5478    0.3352    0.5734    1.2012
       17 H4     2s        -0.0250   -0.0508   -0.1074   -0.1857    0.3617   -0.0093    0.8373
       18 H4     2px       -0.0000   -0.0000    0.0000   -0.0000   -0.0000    0.0000    0.0000
       19 H4     2py       -0.0000   -0.0000   -0.0000    0.0000   -0.0000    0.0000    0.0000
       20 H4     2pz       -0.0066    0.0272    0.0249   -0.0314   -0.0103   -0.0330   -0.0685
       21 H5     1s         0.2485    0.4116    0.3499   -0.6072   -1.0465   -1.2729   -0.6889
       22 H5     2s        -0.0432    0.0041    0.1044   -0.2897   -0.4353   -1.0224   -0.2605
       23 H5     2px       -0.0000    0.0000    0.0000    0.0000    0.0000    0.0000    0.0000
       24 H5     2py        0.0000    0.0000   -0.0000    0.0000   -0.0000    0.0000    0.0000
       25 H5     2pz       -0.0086    0.0109    0.0361    0.0160   -0.0295   -0.0659   -0.1191
       26 H6     1s         0.1867    0.3374    0.4285    0.8662    0.6335    1.1329    0.2044
       27 H6     2s         0.0094   -0.0013    0.0372    0.4856    0.6958    0.6889    0.7145
       28 H6     2px       -0.0000   -0.0000   -0.0000   -0.0000    0.0000    0.0000    0.0000
       29 H6     2py       -0.0000   -0.0000   -0.0000    0.0000    0.0000   -0.0000   -0.0000
       30 H6     2pz       -0.0175   -0.0220   -0.0116    0.0002    0.0108   -0.0235   -0.0219
--
 
 
++    Molecular charges:
      ------------------
 
      Mulliken charges per centre and basis function type
      ---------------------------------------------------
 
                H1      H2      H3      H4      H5      H6    
      1s       0.9841  0.9994  0.9991  0.9991  0.9994  0.9841
      2s      -0.0002 -0.0259 -0.0704 -0.0704 -0.0259 -0.0002
      2px      0.0000  0.0000  0.0000  0.0000  0.0000  0.0000
      2pz      0.0204  0.0470  0.0465  0.0465  0.0470  0.0204
      2py      0.0000  0.0000 -0.0000  0.0000  0.0000  0.0000
      Total    1.0043  1.0205  0.9752  0.9752  1.0205  1.0043
 
      N-E     -0.0043 -0.0205  0.0248  0.0248 -0.0205 -0.0043
 
      Total electronic charge=    6.000000
 
      Total            charge=   -0.000000
--
 
 
  Input file to MOLDEN was generated!
 
 
++    Static properties:
      ------------------
 
 
      LoProp Charges per center
 

                   H1       H2       H3       H4       H5       H6    
      Nuclear      1.0000   1.0000   1.0000   1.0000   1.0000   1.0000
      Electronic  -1.0161  -0.9925  -0.9914  -0.9914  -0.9925  -1.0161
 
      Total       -0.0161   0.0075   0.0086   0.0086   0.0075  -0.0161
--
 
 
++    Natural Bond Order analysis
      ---------------------------
      Based on LoProp computed density
      -------------------------------------------------------------------------------------
      Atom A       Atom B       Bond Order | Atom A       Atom B       Bond Order
        H1           H2             0.989  |   H3           H4             0.965
        H5           H6             0.989  |
      -------------------------------------------------------------------------------------
      NBO located      5.885 electrons involved in    3 bonds.
      The remaining    0.115 electrons are to be considered as diffuse
--
 
 
++    Molecular properties:
      ---------------------
 
      Charge (e):
                      =   -0.0000
      Dipole Moment (Debye):
      Origin of the operator (Ang)=    0.0000    0.0000    0.0000
                   X=  4.0496E-14               Y=  3.6290E-14               Z=  2.7229E-06           Total=  2.7229E-06
      Quadrupole Moment (Debye*Ang):
      Origin of the operator (Ang)=    0.0000    0.0000    2.5909
                  XX= -7.1460E+00              XY= -5.4722E-29              XZ= -8.2272E-14              YY= -7.1460E+00
                  YZ= -6.1242E-14              ZZ= -6.3827E+00
      In traceless form (Debye*Ang)
                  XX= -3.8167E-01              XY= -8.2083E-29              XZ= -1.2341E-13              YY= -3.8167E-01
                  YZ= -9.1863E-14              ZZ=  7.6334E-01
--
 
 
  Input file to MOLDEN was generated!
 
 ###############################################################################
 ###############################################################################
 ###                                                                         ###
 ###                                                                         ###
 ###    RunFile label nBas                                                   ###
 ###    was used       78 times                                              ###
 ###                                                                         ###
 ###                                                                         ###
 ###############################################################################
 ###############################################################################
--- Stop Module: scf at Tue Nov 12 16:13:43 2024 /rc=_RC_ALL_IS_WELL_ ---
*** files: H6_1.04.LprOrb H6_1.04.LoProp.molden H6_1.04.scf.molden H6_1.04.ScfOrb H6_1.04.scf.h5 xmldump
    saved to directory /home/grierjones/DDCASPT2/hydrogen_comps/H6_chain/H6_1.04

>>> COPY /tmp/H6_1.04/H6_1.04.scf.h5 /home/grierjones/DDCASPT2/hydrogen_comps/H6_chain/H6_1.04/

*** symbolic link created: INPORB -> H6_1.04.ScfOrb
--- Start Module: rasscf at Tue Nov 12 16:13:43 2024 ---
 
()()()()()()()()()()()()()()()()()()()()()()()()()()()()()()()()()()()()()()()()()()()()()()()()()()

                                              &RASSCF

                                   only a single process is used
                       available to each process: 2.0 GB of memory, 1 thread?
()()()()()()()()()()()()()()()()()()()()()()()()()()()()()()()()()()()()()()()()()()()()()()()()()()
 
 
      Header of the ONEINT file:
      --------------------------
      
      Integrals generated by seward 4.2.0  , Tue Nov 12 16:13:42 2024
 
 
      OrdInt status: non-squared
 
 
      Cartesian coordinates in Angstrom:
      -----------------------------------------------------
      No.  Label        X            Y            Z        
      -----------------------------------------------------
       1   H1         0.00000000   0.00000000   0.00000000
       2   H2         0.00000000   0.00000000   1.03636400
       3   H3         0.00000000   0.00000000   2.07272700
       4   H4         0.00000000   0.00000000   3.10909100
       5   H5         0.00000000   0.00000000   4.14545500
       6   H6         0.00000000   0.00000000   5.18181800
      -----------------------------------------------------
      Nuclear repulsion energy =    4.44230352
 
++    Wave function specifications:
      -----------------------------
 
      Number of closed shell electrons           0
      Number of electrons in active shells       6
      Max number of holes in RAS1 space          0
      Max nr of electrons in RAS3 space          0
      Number of inactive orbitals                0
      Number of active orbitals                  6
      Number of secondary orbitals              24
      Spin quantum number                      0.0
      State symmetry                             1
--
 
++    Orbital specifications:
      -----------------------
 
      Symmetry species                           1
                                                 a
      Frozen orbitals                            0
      Inactive orbitals                          0
      Active orbitals                            6
      RAS1 orbitals                              0
      RAS2 orbitals                              6
      RAS3 orbitals                              0
      Secondary orbitals                        24
      Deleted orbitals                           0
      Number of basis functions                 30
--
 
++    CI expansion specifications:
      ----------------------------
 
      Number of CSFs                           175
      Number of determinants                   210
      Number of root(s) required                 1
      Root chosen for geometry opt.              1
      CI root used                               1
         
      highest root included in the CI            1
      max. size of the explicit Hamiltonian    175
--
 
++    Optimization specifications:
      ----------------------------
 
      RASSCF algorithm: Conventional
      Maximum number of macro iterations       200
      Maximum number of SX iterations          100
      Threshold for RASSCF energy            0.100E-07
      Threshold for max MO rotation          0.100E+00
      Threshold for max BLB element          0.100E-03
      Level shift parameter                  0.500E+00
      Make Quasi-Newton update
--
 
      The MO-coefficients are taken from the file:
      /home/grierjones/DDCASPT2/hydrogen_comps/H6_chain/H6_1.01/H6_1.01.RasOrb                                                        
      Title: RASSCF average (pseudo-natural) orbitals                                      
 
      Total molecular charge    0.00
 
      ************************************************************************************************************************
      *                                                                                                                      *
      *                                            Wave function control section                                             *
      *                                                                                                                      *
      ************************************************************************************************************************
 
 
                                         RASSCF iterations: Energy and convergence statistics
                                         ----------------------------------------------------
 
      Iter CI   SX   CI       RASSCF       Energy    max ROT     max BLB   max BLB  Level Ln srch  Step   QN   Walltime
          iter iter root      energy       change     param      element    value   shift minimum  type update hh:mm:ss
 Nr of preliminary CI iterations:   1
        1   1    4    1    -3.31549016    0.00E+00  -0.61E-02    1   7 1 -0.10E-01*  0.00   0.00    SX    NO    0:00:00
        2   1    4    1    -3.31563623   -0.15E-03* -0.11E-02    1   7 1 -0.19E-02*  0.00   0.00    SX    NO    0:00:00
        3   1    3    1    -3.31564045   -0.42E-05*  0.38E-03    1   7 1 -0.35E-03*  0.00   0.00    SX    NO    0:00:00
        4   1    3    1    -3.31564067   -0.22E-06*  0.18E-03    1   7 1 -0.70E-04   0.00   0.00    SX    NO    0:00:00
        5   1    3    1    -3.31564069   -0.25E-07*  0.17E-03    2  14 1  0.22E-04   0.00   1.67    QN   YES    0:00:00
        6   1    3    1    -3.31564070   -0.57E-08  -0.27E-04    1   7 1  0.58E-05   0.00   1.05    QN   YES    0:00:00
      Convergence after  6 iterations
 
  Dmat in MO in SXCTL bf call to SXHAM                                                                                    
  mat. size =     6x    6
 
        1.9704080028653415
       -0.0000000012949229      1.9501019082808915
       -0.0000622858613505      0.0000001190978661      1.8913991170458433
        0.0000004181581185      0.0029381223429873     -0.0000000885938098      0.1201711504488489
        0.0000000078893576     -0.0004244200080530      0.0000002676132229     -0.0001329242397042      0.0221013817828622
       -0.0002144808233403      0.0000000210986258      0.0003765518900315      0.0000001068607713     -0.0000000022620108
        0.0458184395762118
        7   1    3    1    -3.31564070   -0.18E-09  -0.27E-04    1   7 1  0.22E-05   0.00   1.05    QN   YES    0:00:00
 
      ************************************************************************************************************************
                                                      Wave function printout:
                       occupation of active orbitals, and spin coupling of open shells (u,d: Spin up or down)
      ************************************************************************************************************************
 
      Note: transformation to natural orbitals
      has been made, which may change the order of the CSFs.
 
      printout of CI-coefficients larger than  0.05 for root  1
      energy=      -3.315641
      conf/sym  111111     Coeff  Weight
             1  222000  -0.95278 0.90780
            11  220200   0.18310 0.03353
            20  2udu0d   0.12513 0.01566
            24  u2dud0  -0.09285 0.00862
            29  202200   0.06728 0.00453
            34  202002   0.06005 0.00361
            38  ud2u0d   0.05661 0.00320
            39  ud20ud  -0.05136 0.00264
            48  2uud0d  -0.06561 0.00430
 
      Natural orbitals and occupation numbers for root  1
      sym 1:   1.970408   1.950107   1.891399   0.120167   0.022101   0.045818
 
      ************************************************************************************************************************
      *                                                                                                                      *
      *                                                    Final results                                                     *
      *                                                                                                                      *
      ************************************************************************************************************************
 
 
++    Wave function specifications:
      -----------------------------
 
      Number of closed shell electrons           0
      Number of electrons in active shells       6
      Max number of holes in RAS1 space          0
      Max nr of electrons in RAS3 space          0
      Number of inactive orbitals                0
      Number of active orbitals                  6
      Number of secondary orbitals              24
      Spin quantum number                      0.0
      State symmetry                             1
--
 
++    Orbital specifications:
      -----------------------
 
      Symmetry species                           1
                                                 a
      Frozen orbitals                            0
      Inactive orbitals                          0
      Active orbitals                            6
      RAS1 orbitals                              0
      RAS2 orbitals                              6
      RAS3 orbitals                              0
      Secondary orbitals                        24
      Deleted orbitals                           0
      Number of basis functions                 30
--
 
++    CI expansion specifications:
      ----------------------------
 
      Number of CSFs                           175
      Number of determinants                   210
      Number of root(s) required                 1
      CI root used                               1
      highest root included in the CI            1
      Root passed to geometry opt.               1
--
 
++    Final optimization conditions:
      ------------------------------
 
      Average CI energy                              -3.31564070
      RASSCF energy for state  1                     -3.31564070
      Super-CI energy                                -0.00000000
      RASSCF energy change                           -0.00000000
      Max change in MO coefficients               0.398E-04
      Max non-diagonal density matrix element    -0.267E-04
      Maximum BLB matrix element                  0.217E-05
      (orbital pair   1,   7 in symmetry   1)
      Norm of electronic gradient            0.331E-05
--
 
 
      Final state energy(ies):
      ------------------------
 
::    RASSCF root number  1 Total energy:     -3.31564070
 
++    Molecular orbitals:
      -------------------
 
      Pseudonatural active orbitals and approximate occupation numbers
 
 
 
 
      Molecular orbitals for symmetry species 1: a  
 
 
      Orbital                1         2         3         4         5         6         7         8         9        10
      Energy            0.0000    0.0000    0.0000    0.0000    0.0000    0.0000    0.2182    0.3020    0.4635    0.5678
      Occ. No.          1.9704    1.9501    1.8914    0.1202    0.0221    0.0458    0.0000    0.0000    0.0000    0.0000
 
    1 H1     1s         0.1944   -0.3428    0.4370   -0.5801    0.6545   -0.7414   -0.0993    0.2151   -0.8752   -0.0000
    2 H1     2s         0.0089    0.0026    0.0267    0.0273    0.0945   -0.0144    0.2676    0.7347   -1.2529   -0.0000
    3 H1     2px        0.0000    0.0000   -0.0000    0.0000   -0.0000    0.0000    0.0000    0.0000   -0.0000   -0.1087
    4 H1     2py        0.0000   -0.0000   -0.0000    0.0000   -0.0000    0.0000    0.0000    0.0000   -0.0000   -0.1472
    5 H1     2pz        0.0147   -0.0182    0.0071    0.0037    0.0059    0.0022   -0.0115    0.0380   -0.1025    0.0000
    6 H2     1s         0.2591   -0.3998    0.3217    0.2482   -1.3124    1.0079   -0.1151   -0.2667    0.6445    0.0000
    7 H2     2s        -0.0424    0.0142    0.0819   -0.0633   -0.3701    0.1388    0.1970    0.0289    0.6768    0.0000
    8 H2     2px       -0.0000   -0.0000   -0.0000   -0.0000   -0.0000   -0.0000   -0.0000    0.0000   -0.0000   -0.1738
    9 H2     2py        0.0000   -0.0000    0.0000    0.0000    0.0000   -0.0000   -0.0000    0.0000   -0.0000   -0.2355
   10 H2     2pz        0.0094    0.0070   -0.0339    0.0417    0.0247    0.0082    0.0076    0.1116   -0.2389    0.0000
   11 H3     1s         0.3589   -0.1073   -0.4763    0.6170    1.7128   -0.4506   -0.0845    0.1994    0.0179   -0.0000
   12 H3     2s        -0.0310    0.0399   -0.0823    0.0567    0.5038   -0.1101    0.2574    0.2833    0.4192   -0.0000
   13 H3     2px        0.0000   -0.0000    0.0000    0.0000    0.0000   -0.0000   -0.0000    0.0000   -0.0000   -0.2138
   14 H3     2py        0.0000    0.0000    0.0000   -0.0000   -0.0000    0.0000   -0.0000    0.0000   -0.0000   -0.2896
   15 H3     2pz        0.0032    0.0263   -0.0224   -0.0234    0.0100   -0.0468   -0.0121    0.0899   -0.0201    0.0000
   16 H4     1s         0.3589    0.1073   -0.4763   -0.6170   -1.7128   -0.4506   -0.0845   -0.1994    0.0179    0.0000
   17 H4     2s        -0.0310   -0.0399   -0.0823   -0.0567   -0.5038   -0.1101    0.2574   -0.2833    0.4192    0.0000
   18 H4     2px       -0.0000    0.0000   -0.0000    0.0000   -0.0000   -0.0000   -0.0000    0.0000    0.0000   -0.2138
   19 H4     2py        0.0000   -0.0000   -0.0000    0.0000   -0.0000   -0.0000   -0.0000    0.0000   -0.0000   -0.2896
   20 H4     2pz       -0.0032    0.0263    0.0224   -0.0234    0.0100    0.0468    0.0121    0.0899    0.0201    0.0000
   21 H5     1s         0.2591    0.3998    0.3217   -0.2482    1.3124    1.0079   -0.1151    0.2667    0.6445   -0.0000
   22 H5     2s        -0.0424   -0.0142    0.0819    0.0633    0.3701    0.1388    0.1970   -0.0289    0.6768   -0.0000
   23 H5     2px        0.0000    0.0000   -0.0000    0.0000    0.0000    0.0000   -0.0000    0.0000    0.0000   -0.1738
   24 H5     2py        0.0000    0.0000   -0.0000    0.0000   -0.0000    0.0000   -0.0000    0.0000    0.0000   -0.2355
   25 H5     2pz       -0.0094    0.0070    0.0339    0.0417    0.0247   -0.0082   -0.0076    0.1116    0.2389   -0.0000
   26 H6     1s         0.1944    0.3428    0.4370    0.5801   -0.6545   -0.7414   -0.0993   -0.2151   -0.8752    0.0000
   27 H6     2s         0.0089   -0.0026    0.0267   -0.0273   -0.0945   -0.0144    0.2677   -0.7347   -1.2529    0.0000
   28 H6     2px        0.0000    0.0000    0.0000   -0.0000   -0.0000   -0.0000   -0.0000    0.0000    0.0000   -0.1087
   29 H6     2py       -0.0000    0.0000    0.0000    0.0000   -0.0000   -0.0000   -0.0000    0.0000    0.0000   -0.1472
   30 H6     2pz       -0.0147   -0.0182   -0.0071    0.0037    0.0059   -0.0022    0.0115    0.0380    0.1025   -0.0000
 
 
      Orbital               11        12        13        14        15        16        17        18        19        20
      Energy            0.5678    0.7078    0.7078    0.7982    0.9438    0.9438    1.2229    1.2955    1.2955    1.5219
      Occ. No.          0.0000    0.0000    0.0000    0.0000    0.0000    0.0000    0.0000    0.0000    0.0000    0.0000
 
    1 H1     1s        -0.0000   -0.0000    0.0000   -1.6027    0.0000    0.0000    1.4054   -0.0000    0.0000   -1.2494
    2 H1     2s        -0.0000   -0.0000    0.0000   -1.5930   -0.0000    0.0000    1.0314   -0.0000    0.0000   -1.2586
    3 H1     2px        0.1472   -0.3515    0.1030   -0.0000    0.4833   -0.2011    0.0000    0.5017   -0.3560    0.0000
    4 H1     2py       -0.1087   -0.1030   -0.3515   -0.0000   -0.2011   -0.4833    0.0000   -0.3560   -0.5017    0.0000
    5 H1     2pz       -0.0000    0.0000    0.0000   -0.1453   -0.0000    0.0000   -0.1419   -0.0000   -0.0000   -0.6226
    6 H2     1s         0.0000    0.0000   -0.0000    1.9429   -0.0000   -0.0000   -3.0556    0.0000   -0.0000    2.5931
    7 H2     2s         0.0000    0.0000   -0.0000    2.3037   -0.0000   -0.0000   -3.1415    0.0000   -0.0000    2.5315
    8 H2     2px        0.2355   -0.3808    0.1116    0.0000    0.1597   -0.0665   -0.0000   -0.2830    0.2008   -0.0000
    9 H2     2py       -0.1738   -0.1116   -0.3808    0.0000   -0.0665   -0.1597   -0.0000    0.2008    0.2830    0.0000
   10 H2     2pz       -0.0000    0.0000    0.0000   -0.1637   -0.0000    0.0000    0.0189   -0.0000    0.0000    0.3187
   11 H3     1s        -0.0000   -0.0000    0.0000   -0.0396    0.0000   -0.0000    1.8806   -0.0000    0.0000   -1.3179
   12 H3     2s        -0.0000   -0.0000   -0.0000    0.2453    0.0000   -0.0000    2.0300   -0.0000    0.0000   -1.3732
   13 H3     2px        0.2896   -0.1651    0.0484    0.0000   -0.3775    0.1570   -0.0000   -0.4046    0.2871   -0.0000
   14 H3     2py       -0.2138   -0.0484   -0.1651    0.0000    0.1570    0.3775   -0.0000    0.2871    0.4046   -0.0000
   15 H3     2pz       -0.0000    0.0000   -0.0000    0.2400    0.0000   -0.0000   -0.4610    0.0000   -0.0000   -0.1783
   16 H4     1s         0.0000    0.0000   -0.0000    0.0396   -0.0000   -0.0000    1.8806   -0.0000    0.0000   -1.3179
   17 H4     2s         0.0000   -0.0000   -0.0000   -0.2453   -0.0000   -0.0000    2.0300   -0.0000    0.0000   -1.3732
   18 H4     2px        0.2896    0.1651   -0.0484    0.0000   -0.3775    0.1570    0.0000    0.4046   -0.2871    0.0000
   19 H4     2py       -0.2138    0.0484    0.1651    0.0000    0.1570    0.3775    0.0000   -0.2871   -0.4046    0.0000
   20 H4     2pz        0.0000    0.0000   -0.0000    0.2400    0.0000   -0.0000    0.4610   -0.0000    0.0000    0.1783
   21 H5     1s        -0.0000   -0.0000    0.0000   -1.9429   -0.0000    0.0000   -3.0556    0.0000   -0.0000    2.5931
   22 H5     2s        -0.0000   -0.0000    0.0000   -2.3037   -0.0000    0.0000   -3.1415    0.0000   -0.0000    2.5315
   23 H5     2px        0.2355    0.3808   -0.1116   -0.0000    0.1597   -0.0665    0.0000    0.2830   -0.2008    0.0000
   24 H5     2py       -0.1738    0.1116    0.3808    0.0000   -0.0665   -0.1597    0.0000   -0.2008   -0.2830    0.0000
   25 H5     2pz       -0.0000   -0.0000   -0.0000   -0.1637   -0.0000    0.0000   -0.0189   -0.0000   -0.0000   -0.3187
   26 H6     1s        -0.0000    0.0000   -0.0000    1.6027    0.0000   -0.0000    1.4054   -0.0000    0.0000   -1.2494
   27 H6     2s         0.0000    0.0000   -0.0000    1.5930    0.0000   -0.0000    1.0314   -0.0000    0.0000   -1.2586
   28 H6     2px        0.1472    0.3515   -0.1030   -0.0000    0.4833   -0.2011   -0.0000   -0.5017    0.3560   -0.0000
   29 H6     2py       -0.1087    0.1030    0.3515   -0.0000   -0.2011   -0.4833   -0.0000    0.3560    0.5017   -0.0000
   30 H6     2pz        0.0000   -0.0000   -0.0000   -0.1453   -0.0000    0.0000    0.1419   -0.0000    0.0000    0.6226
 
 
      Orbital               21        22        23        24        25        26        27        28        29        30
      Energy            1.6256    1.7668    1.7668    2.0668    2.2900    2.2900    2.3576    3.0319    3.8311    4.9002
      Occ. No.          0.0000    0.0000    0.0000    0.0000    0.0000    0.0000    0.0000    0.0000    0.0000    0.0000
 
    1 H1     1s         0.1201    0.0000    0.0000    2.1461   -0.0000   -0.0000   -1.5702    1.6286   -1.3380    0.9732
    2 H1     2s        -0.0738    0.0000    0.0000    1.6882   -0.0000   -0.0000   -0.9265    0.6472   -0.2699    0.1013
    3 H1     2px       -0.0000   -0.3130   -0.4986   -0.0000    0.3316   -0.1894   -0.0000    0.0000   -0.0000    0.0000
    4 H1     2py        0.0000    0.4986   -0.3130    0.0000    0.1894    0.3316   -0.0000    0.0000   -0.0000    0.0000
    5 H1     2pz       -0.6265    0.0000   -0.0000    0.7403   -0.0000   -0.0000   -0.9775    0.9252   -0.7544    0.5152
    6 H2     1s        -1.3631    0.0000   -0.0000   -6.2934    0.0000    0.0000    2.9979   -1.7765   -0.2258    0.8828
    7 H2     2s        -1.5038    0.0000   -0.0000   -5.1233    0.0000    0.0000    1.6060   -0.7969   -0.0311   -0.0264
    8 H2     2px       -0.0000    0.4445    0.7081    0.0000   -0.6773    0.3869    0.0000   -0.0000   -0.0000    0.0000
    9 H2     2py       -0.0000   -0.7081    0.4445   -0.0000   -0.3869   -0.6773    0.0000    0.0000    0.0000   -0.0000
   10 H2     2pz       -0.0053   -0.0000    0.0000   -0.5056   -0.0000    0.0000   -0.2473    1.0804   -1.7682    1.6366
   11 H3     1s         3.6066   -0.0000    0.0000    9.2903   -0.0000   -0.0000   -1.3243   -1.0199    1.6313    0.5569
   12 H3     2s         3.7618   -0.0000    0.0000    7.7759    0.0000   -0.0000   -0.7893    0.0568    0.2274    0.1886
   13 H3     2px        0.0000   -0.2059   -0.3281   -0.0000    0.8752   -0.4999   -0.0000    0.0000    0.0000   -0.0000
   14 H3     2py        0.0000    0.3281   -0.2059    0.0000    0.4999    0.8752   -0.0000   -0.0000   -0.0000    0.0000
   15 H3     2pz       -0.0138    0.0000   -0.0000    0.2474    0.0000    0.0000    0.7943   -0.7392   -0.9561    2.4124
   16 H4     1s        -3.6066    0.0000   -0.0000   -9.2903   -0.0000    0.0000   -1.3243    1.0199    1.6313   -0.5569
   17 H4     2s        -3.7618    0.0000   -0.0000   -7.7759   -0.0000    0.0000   -0.7893   -0.0568    0.2274   -0.1886
   18 H4     2px        0.0000   -0.2059   -0.3281    0.0000   -0.8752    0.4999    0.0000   -0.0000   -0.0000    0.0000
   19 H4     2py       -0.0000    0.3281   -0.2059   -0.0000   -0.4999   -0.8752    0.0000    0.0000    0.0000    0.0000
   20 H4     2pz       -0.0138    0.0000    0.0000    0.2474   -0.0000   -0.0000   -0.7943   -0.7392    0.9561    2.4124
   21 H5     1s         1.3631    0.0000    0.0000    6.2934    0.0000   -0.0000    2.9979    1.7765   -0.2258   -0.8828
   22 H5     2s         1.5038    0.0000    0.0000    5.1233    0.0000   -0.0000    1.6060    0.7969   -0.0311    0.0264
   23 H5     2px       -0.0000    0.4445    0.7081   -0.0000    0.6773   -0.3869   -0.0000    0.0000   -0.0000   -0.0000
   24 H5     2py       -0.0000   -0.7081    0.4445    0.0000    0.3869    0.6773   -0.0000    0.0000   -0.0000    0.0000
   25 H5     2pz       -0.0053   -0.0000    0.0000   -0.5056    0.0000    0.0000    0.2473    1.0804    1.7682    1.6366
   26 H6     1s        -0.1201   -0.0000    0.0000   -2.1461   -0.0000    0.0000   -1.5702   -1.6286   -1.3380   -0.9732
   27 H6     2s         0.0738   -0.0000    0.0000   -1.6882   -0.0000    0.0000   -0.9265   -0.6472   -0.2699   -0.1013
   28 H6     2px        0.0000   -0.3130   -0.4986    0.0000   -0.3316    0.1894    0.0000   -0.0000    0.0000    0.0000
   29 H6     2py        0.0000    0.4986   -0.3130   -0.0000   -0.1894   -0.3316    0.0000    0.0000    0.0000    0.0000
   30 H6     2pz       -0.6265    0.0000   -0.0000    0.7403    0.0000    0.0000    0.9775    0.9252    0.7544    0.5152
--
 
      Von Neumann Entropy (Root  1) =  0.57328
 

      Mulliken population analysis for root number:  1
      -----------------------------------------------
 
 
++    Molecular charges:
      ------------------
 
      Mulliken charges per centre and basis function type
      ---------------------------------------------------
 
                H1      H2      H3      H4      H5      H6    
      1s       1.0051  0.9762  1.0016  1.0016  0.9762  1.0051
      2s       0.0002 -0.0259 -0.0609 -0.0609 -0.0259  0.0002
      2px      0.0000  0.0000  0.0000  0.0000  0.0000  0.0000
      2pz      0.0163  0.0441  0.0433  0.0433  0.0441  0.0163
      2py      0.0000  0.0000  0.0000  0.0000 -0.0000  0.0000
      Total    1.0216  0.9944  0.9841  0.9841  0.9944  1.0216
 
      N-E     -0.0216  0.0056  0.0159  0.0159  0.0056 -0.0216
 
      Total electronic charge=    6.000000
 
      Total            charge=   -0.000000
--
 
 

      Expectation values of various properties for root number:  1
      -----------------------------------------------------------
 
 
++    Molecular properties:
      ---------------------
 
      Charge (e):
                      =   -0.0000
      Dipole Moment (Debye):
      Origin of the operator (Ang)=    0.0000    0.0000    0.0000
                   X= -5.1694E-13               Y= -8.8272E-14               Z=  1.6898E-06           Total=  1.6898E-06
      Quadrupole Moment (Debye*Ang):
      Origin of the operator (Ang)=    0.0000    0.0000    2.5909
                  XX= -6.8067E+00              XY= -1.1636E-26              XZ= -1.8129E-12              YY= -6.8067E+00
                  YZ=  1.7244E-13              ZZ= -6.5446E+00
      In traceless form (Debye*Ang)
                  XX= -1.3108E-01              XY= -1.7454E-26              XZ= -2.7193E-12              YY= -1.3108E-01
                  YZ=  2.5866E-13              ZZ=  2.6217E-01
--
 

      LoProp population analysis for root number:  1
      -----------------------------------------------
 
 
++    LoProp analysis:
      ----------------
 
 
 
  Input file to MOLDEN was generated!
 
 
++    Static properties:
      ------------------
 
 
      LoProp Charges per center
 

                   H1       H2       H3       H4       H5       H6    
      Nuclear      1.0000   1.0000   1.0000   1.0000   1.0000   1.0000
      Electronic  -1.0197  -0.9880  -0.9923  -0.9923  -0.9880  -1.0197
 
      Total       -0.0197   0.0120   0.0077   0.0077   0.0120  -0.0197
--
 
 
      Natural Bond Order analysis for root number:  1
 
++    Natural Bond Order analysis
      ---------------------------
      Based on LoProp computed density
      -------------------------------------------------------------------------------------
      Atom A       Atom B       Bond Order | Atom A       Atom B       Bond Order
        H1           H2             0.948  |   H3           H4             0.923
        H5           H6             0.948  |
      -------------------------------------------------------------------------------------
      NBO located      5.638 electrons involved in    3 bonds.
      The remaining    0.362 electrons are to be considered as diffuse
--
 
--
 
 
  Input file to MOLDEN was generated!
 
      Average orbitals are written to the RASORB file
      Natural orbitals for root   1 are written to the RASORB.1 file
      Spin density orbitals for root   1 are written to the SPDORB.1 file
 
--- Stop Module: rasscf at Tue Nov 12 16:13:43 2024 /rc=_RC_ALL_IS_WELL_ ---
*** files: H6_1.04.LprOrb H6_1.04.rasscf.molden H6_1.04.LoProp.molden H6_1.04.RasOrb H6_1.04.RasOrb.1 H6_1.04.rasscf.h5 H6_1.04.SpdOrb.1 xmldump
    saved to directory /home/grierjones/DDCASPT2/hydrogen_comps/H6_chain/H6_1.04

>>> COPY /tmp/H6_1.04/H6_1.04.rasscf.h5 /home/grierjones/DDCASPT2/hydrogen_comps/H6_chain/H6_1.04/

>>> COPY /tmp/H6_1.04/GMJ_Fock_MO.csv /home/grierjones/DDCASPT2/hydrogen_comps/H6_chain/H6_1.04/H6_1.04.GMJ_Fock_MO.csv

>>> COPY /tmp/H6_1.04/GMJ_PT2_Fock_MO.csv /home/grierjones/DDCASPT2/hydrogen_comps/H6_chain/H6_1.04/H6_1.04.GMJ_PT2_Fock_MO.csv

*** symbolic link created: INPORB -> H6_1.04.RasOrb
--- Start Module: motra at Tue Nov 12 16:13:43 2024 ---
 
()()()()()()()()()()()()()()()()()()()()()()()()()()()()()()()()()()()()()()()()()()()()()()()()()()

                                               &MOTRA

                                   only a single process is used
                       available to each process: 2.0 GB of memory, 1 thread?
()()()()()()()()()()()()()()()()()()()()()()()()()()()()()()()()()()()()()()()()()()()()()()()()()()
 
 
      *** WARNING: Default frozen orbitals is overwritten by user input.
      *** Default values:   0
 
      Header of the integral files:
      
       Integrals generated by seward 4.2.0  , Tue Nov 12 16:13:42 2024
 
 
      Header of MO coefficients source file:
      * RASSCF average (pseudo-natural) orbitals                                      
 
 
      Cartesian coordinates in Angstrom:
      -----------------------------------------------------
      No.  Label        X            Y            Z        
      -----------------------------------------------------
       1   H1         0.00000000   0.00000000   0.00000000
       2   H2         0.00000000   0.00000000   1.03636400
       3   H3         0.00000000   0.00000000   2.07272700
       4   H4         0.00000000   0.00000000   3.10909100
       5   H5         0.00000000   0.00000000   4.14545500
       6   H6         0.00000000   0.00000000   5.18181800
      -----------------------------------------------------
      Nuclear repulsion energy =    4.44230352
 
      Orbital specifications:
      -----------------------
 
      Symmetry species:              1
      Number of basis functions:    30
      Frozen orbitals:               0
      Deleted orbitals:              0
      Number of orbitals used:      30

       SYMMETRY  BASIS FUNCTIONS       ORBITALS      INTEGRALS   CPU(SEC)  I/O(SEC)
 
        1 1 1 1   30  30  30  30    30  30  30  30      108345       0.00      0.00

       TOTAL CPU TIME(SEC)    0.06TOTAL I/O TIME(SEC)    0.15
 
--- Stop Module: motra at Tue Nov 12 16:13:43 2024 /rc=_RC_ALL_IS_WELL_ ---
*** files: xmldump
    saved to directory /home/grierjones/DDCASPT2/hydrogen_comps/H6_chain/H6_1.04

>>> COPY /tmp/H6_1.04/GMJ_one_int_indx.csv /home/grierjones/DDCASPT2/hydrogen_comps/H6_chain/H6_1.04/H6_1.04.GMJ_one_int_indx.csv

>>> COPY /tmp/H6_1.04/GMJ_one_int.csv /home/grierjones/DDCASPT2/hydrogen_comps/H6_chain/H6_1.04/H6_1.04.GMJ_one_int.csv

>>> COPY /tmp/H6_1.04/GMJ_two_int_indx.csv /home/grierjones/DDCASPT2/hydrogen_comps/H6_chain/H6_1.04/H6_1.04.GMJ_two_int_indx.csv

>>> COPY /tmp/H6_1.04/GMJ_two_int.csv /home/grierjones/DDCASPT2/hydrogen_comps/H6_chain/H6_1.04/H6_1.04.GMJ_two_int.csv

*** symbolic link created: INPORB -> H6_1.04.RasOrb
--- Start Module: caspt2 at Tue Nov 12 16:13:43 2024 ---
 
()()()()()()()()()()()()()()()()()()()()()()()()()()()()()()()()()()()()()()()()()()()()()()()()()()

                                              &CASPT2

                                   only a single process is used
                       available to each process: 2.0 GB of memory, 1 thread?
()()()()()()()()()()()()()()()()()()()()()()()()()()()()()()()()()()()()()()()()()()()()()()()()()()
 
 Cholesky algorithm in CASPT2 =    1
 
 ###############################################################################
 ###############################################################################
 ###                                                                         ###
 ###                                                                         ###
 ###    User changed nr of frozen orbitals.                                  ###
 ###                                                                         ###
 ###                                                                         ###
 ###############################################################################
 ###############################################################################
 
++    Wave function specifications:
      -----------------------------
 
      Number of closed shell electrons           0
      Number of electrons in active shells       6
      Max number of holes in RAS1 space          0
      Max number of electrons in RAS3 space      0
      Number of inactive orbitals                0
      Number of active orbitals                  6
      Number of secondary orbitals              24
      Spin quantum number                      0.0
      State symmetry                             1
      Number of CSFs                           175
      Number of root(s) available                1
      Root passed to geometry opt.               1
      A file JOBMIX will be created.
      This is a CASSCF or RASSCF reference function
--
 
++    Orbital specifications:
      -----------------------
 
      Symmetry species                           1
                                                 a
      Frozen orbitals                            0
      Inactive orbitals                          0
      Active orbitals                            6
      Secondary orbitals                        24
      Deleted orbitals                           0
      Number of basis functions                 30
--
 
      Type of Fock operator: STANDARD
      Type of 0-order Hamiltonian: STANDARD WITH DEFAULT IPEA
        "IP-EA" denominator shift =      0.25
      The input orbitals and the CI vector will be transformed.
 
--------------------------------------------------------------------------------
 Estimated memory requirements:
  POLY3 :                   262414
  RHS:                      285604
  SIGMA :                   275200
  PRPCTL:                        0
 Available workspace:    230396124
 
++ CASPT2 computation for group   1
 
********************************************************************************
 Multi-State initialization phase begins for group   1
--------------------------------------------------------------------------------
********************************************************************************
 Compute H0 matrices for state    1
--------------------------------------------------------------------------------
--------------------------------------------------------------------------------
 H0 matrices have been computed.
 
********************************************************************************
  CASPT2 EQUATION SOLUTION
--------------------------------------------------------------------------------
 
  Total nr of CASPT2 parameters:
   Before reduction:       15624
   After  reduction:       15384
 
 The contributions to the second order correlation energy in atomic units.
-----------------------------------------------------------------------------------------------------------------------------
  IT.      VJTU        VJTI        ATVX        AIVX        VJAI        BVAT        BJAT        BJAI        TOTAL       RNORM  
-----------------------------------------------------------------------------------------------------------------------------
   1     0.000000    0.000000   -0.010545    0.000000    0.000000   -0.031777    0.000000    0.000000   -0.042323    0.003085
   2     0.000000    0.000000   -0.010691    0.000000    0.000000   -0.031822    0.000000    0.000000   -0.042513    0.000322
   3     0.000000    0.000000   -0.010692    0.000000    0.000000   -0.031823    0.000000    0.000000   -0.042515    0.000048
   4     0.000000    0.000000   -0.010690    0.000000    0.000000   -0.031823    0.000000    0.000000   -0.042513    0.000005
-------------------------------------------------------------------------------------------------------------------
 
  FINAL CASPT2 RESULT:
 
  Correlation energy /Case, /Symm, and sums:
 VJTU      0.00000000  0.00000000
 VJTIP     0.00000000  0.00000000
 VJTIM     0.00000000  0.00000000
 ATVX     -0.01069017 -0.01069017
 AIVX      0.00000000  0.00000000
 VJAIP     0.00000000  0.00000000
 VJAIM     0.00000000  0.00000000
 BVATP    -0.02993750 -0.02993750
 BVATM    -0.00188577 -0.00188577
 BJATP     0.00000000  0.00000000
 BJATM     0.00000000  0.00000000
 BJAIP     0.00000000  0.00000000
 BJAIM     0.00000000  0.00000000
 Summed:  -0.04251344 -0.04251344
 
      Reference energy:          -3.3156406987
      E2 (Non-variational):      -0.0425134350
      E2 (Variational):          -0.0425134477
      Total energy:              -3.3581541464
      Residual norm:              0.0000006691
      Reference weight:           0.98384
 
      Contributions to the CASPT2 correlation energy
      Active & Virtual Only:         -0.0425134350
      One Inactive Excited:           0.0000000000
      Two Inactive Excited:           0.0000000000
 
 
++ Denominators, etc.
----------------------------------------------------------------------------------------------------
 Report on small energy denominators, large coefficients, and large energy contributions.
CASE  SYMM ACTIVE-MIX  NON-ACTIVE INDICES          DENOMINATOR     RHS VALUE       COEFFICIENT     CONTRIBUTION
--
 
   (Skipping property calculation,
    use PROP keyword to activate)
--
 
  Total CASPT2 energies:
::    CASPT2 Root  1     Total energy:     -3.35815415
 
  A NEW JOBIPH FILE NAMED 'JOBMIX' IS PREPARED.
********************************************************************************
--- Stop Module: caspt2 at Tue Nov 12 16:13:43 2024 /rc=_RC_ALL_IS_WELL_ ---
*** files: xmldump
    saved to directory /home/grierjones/DDCASPT2/hydrogen_comps/H6_chain/H6_1.04

>>> EXPORT i = B

>>> EXPORT j = P

>>> IF (-FILE GMJ_e2_${i}_${j}.csv)
(Skipped)

>>> END FOREACH

>>> EXPORT j = M

>>> IF (-FILE GMJ_e2_${i}_${j}.csv)
(Skipped)

>>> END FOREACH

>>> END FOREACH

>>> EXPORT i = E

>>> EXPORT j = P

>>> IF (-FILE GMJ_e2_${i}_${j}.csv)
(Skipped)

>>> END FOREACH

>>> EXPORT j = M

>>> IF (-FILE GMJ_e2_${i}_${j}.csv)
(Skipped)

>>> END FOREACH

>>> END FOREACH

>>> EXPORT i = F

>>> EXPORT j = P

>>> IF (-FILE GMJ_e2_${i}_${j}.csv)

>>> COPY /tmp/H6_1.04/GMJ_RHS_F_P.csv /home/grierjones/DDCASPT2/hydrogen_comps/H6_chain/H6_1.04/GMJ_RHS_F_P.csv

>>> COPY /tmp/H6_1.04/GMJ_IVECW_F_P.csv /home/grierjones/DDCASPT2/hydrogen_comps/H6_chain/H6_1.04/GMJ_IVECW_F_P.csv

>>> COPY /tmp/H6_1.04/GMJ_IVECX_F_P.csv /home/grierjones/DDCASPT2/hydrogen_comps/H6_chain/H6_1.04/GMJ_IVECX_F_P.csv

>>> COPY /tmp/H6_1.04/GMJ_IVECC2_F_P.csv /home/grierjones/DDCASPT2/hydrogen_comps/H6_chain/H6_1.04/GMJ_IVECC2_F_P.csv

>>> COPY /tmp/H6_1.04/GMJ_e2_F_P.csv /home/grierjones/DDCASPT2/hydrogen_comps/H6_chain/H6_1.04/GMJ_e2_F_P.csv

>>> END FOREACH

>>> EXPORT j = M

>>> IF (-FILE GMJ_e2_${i}_${j}.csv)

>>> COPY /tmp/H6_1.04/GMJ_RHS_F_M.csv /home/grierjones/DDCASPT2/hydrogen_comps/H6_chain/H6_1.04/GMJ_RHS_F_M.csv

>>> COPY /tmp/H6_1.04/GMJ_IVECW_F_M.csv /home/grierjones/DDCASPT2/hydrogen_comps/H6_chain/H6_1.04/GMJ_IVECW_F_M.csv

>>> COPY /tmp/H6_1.04/GMJ_IVECX_F_M.csv /home/grierjones/DDCASPT2/hydrogen_comps/H6_chain/H6_1.04/GMJ_IVECX_F_M.csv

>>> COPY /tmp/H6_1.04/GMJ_IVECC2_F_M.csv /home/grierjones/DDCASPT2/hydrogen_comps/H6_chain/H6_1.04/GMJ_IVECC2_F_M.csv

>>> COPY /tmp/H6_1.04/GMJ_e2_F_M.csv /home/grierjones/DDCASPT2/hydrogen_comps/H6_chain/H6_1.04/GMJ_e2_F_M.csv

>>> END FOREACH

>>> END FOREACH

>>> EXPORT i = G

>>> EXPORT j = P

>>> IF (-FILE GMJ_e2_${i}_${j}.csv)
(Skipped)

>>> END FOREACH

>>> EXPORT j = M

>>> IF (-FILE GMJ_e2_${i}_${j}.csv)
(Skipped)

>>> END FOREACH

>>> END FOREACH

>>> EXPORT i = H

>>> EXPORT j = P

>>> IF (-FILE GMJ_e2_${i}_${j}.csv)
(Skipped)

>>> END FOREACH

>>> EXPORT j = M

>>> IF (-FILE GMJ_e2_${i}_${j}.csv)
(Skipped)

>>> END FOREACH

>>> END FOREACH

>>> EXPORT i = A

>>> IF (-FILE GMJ_e2_$i.csv)
(Skipped)

>>> END FOREACH

>>> EXPORT i = C

>>> IF (-FILE GMJ_e2_$i.csv)

>>> COPY /tmp/H6_1.04/GMJ_RHS_C.csv /home/grierjones/DDCASPT2/hydrogen_comps/H6_chain/H6_1.04/GMJ_RHS_C.csv

>>> COPY /tmp/H6_1.04/GMJ_IVECW_C.csv /home/grierjones/DDCASPT2/hydrogen_comps/H6_chain/H6_1.04/GMJ_IVECW_C.csv

>>> COPY /tmp/H6_1.04/GMJ_IVECX_C.csv /home/grierjones/DDCASPT2/hydrogen_comps/H6_chain/H6_1.04/GMJ_IVECX_C.csv

>>> COPY /tmp/H6_1.04/GMJ_IVECC2_C.csv /home/grierjones/DDCASPT2/hydrogen_comps/H6_chain/H6_1.04/GMJ_IVECC2_C.csv

>>> COPY /tmp/H6_1.04/GMJ_e2_C.csv /home/grierjones/DDCASPT2/hydrogen_comps/H6_chain/H6_1.04/GMJ_e2_C.csv

>>> END FOREACH

>>> EXPORT i = D

>>> IF (-FILE GMJ_e2_$i.csv)
(Skipped)

>>> END FOREACH

.########################.
.# Non-zero return code #.
.########################.

    Timing: Wall=1.70 User=1.02 System=0.67
***************************************
*** WorkDir at /tmp/H6_1.04 cleaned ***
***************************************
