[Molden Format]
[N_Atoms]
                     2
[Atoms] (AU)
N1          1      7           0.00000000      0.00000000      0.00000000
O2          2      8           0.00000000      0.00000000      1.51178090
[Charge] (Mulliken)
  0.236375615908159     
 -0.236375615908166     
[GTO] (AU)
   1
   s  14
  7.476171500E+04  1.182599996E-04
  1.112365400E+04  5.172899983E-04
  2.512685700E+03  2.266659992E-03
  7.037772900E+02  9.145289970E-03
  2.254787900E+02  3.239342989E-02
  7.961581000E+01  9.770792967E-02
  3.023728300E+01  2.317036792E-01
  1.226362200E+01  3.768898887E-01
  5.265086000E+00  3.177420689E-01
  2.333471000E+00  8.211308973E-02
  9.018560000E-01  3.312089989E-03
  3.583360000E-01  3.720819988E-03
  1.410930000E-01  3.165419989E-03
  4.938300000E-02  4.595799985E-04
   s  14
  7.476171500E+04 -2.707000010E-05
  1.112365400E+04 -1.183700004E-04
  2.512685700E+03 -5.203800020E-04
  7.037772900E+02 -2.102930008E-03
  2.254787900E+02 -7.568200028E-03
  7.961581000E+01 -2.346767009E-02
  3.023728300E+01 -6.042901023E-02
  1.226362200E+01 -1.170549104E-01
  5.265086000E+00 -1.555321506E-01
  2.333471000E+00 -2.468935009E-02
  9.018560000E-01  3.625054514E-01
  3.583360000E-01  5.550845021E-01
  1.410930000E-01  2.148376908E-01
  4.938300000E-02  8.983850034E-03
   p   9
  1.266665700E+02  1.233630000E-03
  2.983738900E+01  9.493409996E-03
  9.394038000E+00  4.293961998E-02
  3.405104000E+00  1.362925399E-01
  1.350000000E+00  2.921362499E-01
  5.576960000E-01  3.887887598E-01
  2.324490000E-01  2.946801399E-01
  9.426400000E-02  8.012875997E-02
  3.299200000E-02  5.405199998E-04
 
   2
   s  14
  1.053749500E+05  1.238600013E-04
  1.567924000E+04  5.120100053E-04
  3.534544700E+03  2.152910022E-03
  9.873651600E+02  8.528440089E-03
  3.159787500E+02  3.018049031E-02
  1.116542800E+02  9.099702095E-02
  4.269945100E+01  2.177936423E-01
  1.739559600E+01  3.686245738E-01
  7.438309000E+00  3.366707335E-01
  3.222862000E+00  9.657630101E-02
  1.253877000E+00  2.144520022E-03
  4.951550000E-01  1.194350012E-03
  1.916650000E-01  5.390200056E-04
  6.708300000E-02  2.103400022E-04
   s  14
  1.053749500E+05 -2.815000008E-05
  1.567924000E+04 -1.163000003E-04
  3.534544700E+03 -4.909200013E-04
  9.873651600E+02 -1.946160005E-03
  3.159787500E+02 -7.005300019E-03
  1.116542800E+02 -2.167814006E-02
  4.269945100E+01 -5.641213015E-02
  1.739559600E+01 -1.127053003E-01
  7.438309000E+00 -1.589119704E-01
  3.222862000E+00 -3.355083009E-02
  1.253877000E+00  3.531902810E-01
  4.951550000E-01  5.534199315E-01
  1.916650000E-01  2.301839106E-01
  6.708300000E-02  1.127267003E-02
   p   9
  2.000000000E+02  9.173000030E-04
  4.653336700E+01  7.377140024E-03
  1.462180900E+01  3.483515011E-02
  5.313064000E+00  1.144397004E-01
  2.102525000E+00  2.554966408E-01
  8.502230000E-01  3.722557412E-01
  3.375970000E-01  3.323314911E-01
  1.288920000E-01  1.400847905E-01
  4.511200000E-02  2.395784008E-02
 
[MO]
Sym=     1a  
Ene=   -21.0830
Spin= Alpha
Occup=    1.00000
   1        -0.00057717
   2        -0.00614646
   3        -0.00000000
   4        -0.00000000
   5        -0.00199333
   6         1.00086993
   7         0.00600439
   8         0.00000000
   9         0.00000000
  10        -0.00729271
Sym=     1a  
Ene=   -21.0830
Spin= Beta
Occup=    1.00000
   1        -0.00057717
   2        -0.00614646
   3        -0.00000000
   4        -0.00000000
   5        -0.00199333
   6         1.00086993
   7         0.00600439
   8         0.00000000
   9         0.00000000
  10        -0.00729271
Sym=     2a  
Ene=   -16.0160
Spin= Alpha
Occup=    1.00000
   1         1.00046833
   2        -0.00084052
   3        -0.00000000
   4        -0.00000000
   5         0.00950027
   6        -0.00528753
   7        -0.00583537
   8         0.00000000
   9         0.00000000
  10        -0.00085419
Sym=     2a  
Ene=   -16.0160
Spin= Beta
Occup=    1.00000
   1         1.00046833
   2        -0.00084052
   3        -0.00000000
   4        -0.00000000
   5         0.00950027
   6        -0.00528753
   7        -0.00583537
   8         0.00000000
   9         0.00000000
  10        -0.00085419
Sym=     3a  
Ene=    -2.1224
Spin= Alpha
Occup=    1.00000
   1        -0.13548642
   2         0.19333899
   3        -0.00000000
   4         0.00000000
   5         0.28800098
   6        -0.06392942
   7         0.57668641
   8         0.00000000
   9         0.00000000
  10        -0.41049003
Sym=     3a  
Ene=    -2.1224
Spin= Beta
Occup=    1.00000
   1        -0.13548642
   2         0.19333899
   3        -0.00000000
   4         0.00000000
   5         0.28800098
   6        -0.06392942
   7         0.57668641
   8         0.00000000
   9         0.00000000
  10        -0.41049003
Sym=     4a  
Ene=    -1.0355
Spin= Alpha
Occup=    1.00000
   1         0.00000000
   2        -0.00000000
   3         0.31154159
   4         0.32672666
   5        -0.00000000
   6         0.00000000
   7         0.00000000
   8         0.48384246
   9         0.50742575
  10         0.00000000
Sym=     4a  
Ene=    -1.0355
Spin= Beta
Occup=    1.00000
   1         0.00000000
   2        -0.00000000
   3         0.31154159
   4         0.32672666
   5        -0.00000000
   6         0.00000000
   7         0.00000000
   8         0.48384246
   9         0.50742575
  10         0.00000000
Sym=     5a  
Ene=    -1.0073
Spin= Alpha
Occup=    1.00000
   1         0.00000000
   2        -0.00000000
   3        -0.33434042
   4         0.31880150
   5        -0.00000000
   6         0.00000000
   7         0.00000000
   8        -0.50084606
   9         0.47756856
  10         0.00000000
Sym=     5a  
Ene=    -1.0073
Spin= Beta
Occup=    1.00000
   1         0.00000000
   2        -0.00000000
   3        -0.33434042
   4         0.31880150
   5        -0.00000000
   6         0.00000000
   7         0.00000000
   8        -0.50084606
   9         0.47756856
  10         0.00000000
Sym=     6a  
Ene=    -0.9694
Spin= Alpha
Occup=    1.00000
   1         0.04322448
   2        -0.26568977
   3         0.00000000
   4        -0.00000000
   5        -0.09826515
   6         0.04226579
   7         0.73291531
   8         0.00000000
   9        -0.00000000
  10         0.71176477
Sym=     6a  
Ene=    -0.9694
Spin= Beta
Occup=    1.00000
   1         0.04322448
   2        -0.26568977
   3         0.00000000
   4        -0.00000000
   5        -0.09826515
   6         0.04226579
   7         0.73291531
   8         0.00000000
   9        -0.00000000
  10         0.71176477
Sym=     7a  
Ene=    -0.7745
Spin= Alpha
Occup=    1.00000
   1        -0.07762781
   2        -0.85594919
   3         0.00000000
   4         0.00000000
   5         0.63848329
   6        -0.01535797
   7         0.04522115
   8        -0.00000000
   9        -0.00000000
  10        -0.37456579
Sym=     7a  
Ene=    -0.7745
Spin= Beta
Occup=    1.00000
   1        -0.07762781
   2        -0.85594919
   3         0.00000000
   4         0.00000000
   5         0.63848329
   6        -0.01535797
   7         0.04522115
   8        -0.00000000
   9        -0.00000000
  10        -0.37456579
Sym=     8a  
Ene=    -0.0031
Spin= Alpha
Occup=    1.00000
   1        -0.00000000
   2        -0.00000000
   3        -0.72293888
   4        -0.75817614
   5         0.00000000
   6        -0.00000000
   7         0.00000000
   8         0.62096318
   9         0.65122997
  10        -0.00000000
Sym=     8a  
Ene=    -0.0031
Spin= Beta
Occup=    0.00000
   1        -0.00000000
   2        -0.00000000
   3        -0.72293888
   4        -0.75817614
   5         0.00000000
   6        -0.00000000
   7         0.00000000
   8         0.62096318
   9         0.65122997
  10        -0.00000000
Sym=     9a  
Ene=     0.0000
Spin= Alpha
Occup=    0.00000
   1         0.00000000
   2        -0.00000000
   3        -0.75484956
   4         0.71976691
   5        -0.00000000
   6         0.00000000
   7         0.00000000
   8         0.65630374
   9        -0.62580114
  10         0.00000000
Sym=     9a  
Ene=     0.0000
Spin= Beta
Occup=    0.00000
   1         0.00000000
   2        -0.00000000
   3        -0.75484956
   4         0.71976691
   5        -0.00000000
   6         0.00000000
   7         0.00000000
   8         0.65630374
   9        -0.62580114
  10         0.00000000
Sym=    10a  
Ene=     1.8268
Spin= Alpha
Occup=    0.00000
   1         0.47058000
   2         2.08726153
   3        -0.00000000
   4         0.00000000
   5         1.58551064
   6        -0.43348810
   7        -2.19645060
   8         0.00000000
   9         0.00000000
  10         1.32387916
Sym=    10a  
Ene=     1.8268
Spin= Beta
Occup=    0.00000
   1         0.47058000
   2         2.08726153
   3        -0.00000000
   4         0.00000000
   5         1.58551064
   6        -0.43348810
   7        -2.19645060
   8         0.00000000
   9         0.00000000
  10         1.32387916
