[Molden Format]
[N_Atoms]
                     2
[Atoms] (AU)
N1          1      7           0.00000000      0.00000000      0.00000000
O2          2      8           0.00000000      0.00000000      1.51178090
[Charge] (Mulliken)
  0.236533236785219     
 -0.236533236785238     
[GTO] (AU)
   1
   s  14
  7.476171500E+04  1.182599996E-04
  1.112365400E+04  5.172899983E-04
  2.512685700E+03  2.266659992E-03
  7.037772900E+02  9.145289970E-03
  2.254787900E+02  3.239342989E-02
  7.961581000E+01  9.770792967E-02
  3.023728300E+01  2.317036792E-01
  1.226362200E+01  3.768898887E-01
  5.265086000E+00  3.177420689E-01
  2.333471000E+00  8.211308973E-02
  9.018560000E-01  3.312089989E-03
  3.583360000E-01  3.720819988E-03
  1.410930000E-01  3.165419989E-03
  4.938300000E-02  4.595799985E-04
   s  14
  7.476171500E+04 -2.707000010E-05
  1.112365400E+04 -1.183700004E-04
  2.512685700E+03 -5.203800020E-04
  7.037772900E+02 -2.102930008E-03
  2.254787900E+02 -7.568200028E-03
  7.961581000E+01 -2.346767009E-02
  3.023728300E+01 -6.042901023E-02
  1.226362200E+01 -1.170549104E-01
  5.265086000E+00 -1.555321506E-01
  2.333471000E+00 -2.468935009E-02
  9.018560000E-01  3.625054514E-01
  3.583360000E-01  5.550845021E-01
  1.410930000E-01  2.148376908E-01
  4.938300000E-02  8.983850034E-03
   p   9
  1.266665700E+02  1.233630000E-03
  2.983738900E+01  9.493409996E-03
  9.394038000E+00  4.293961998E-02
  3.405104000E+00  1.362925399E-01
  1.350000000E+00  2.921362499E-01
  5.576960000E-01  3.887887598E-01
  2.324490000E-01  2.946801399E-01
  9.426400000E-02  8.012875997E-02
  3.299200000E-02  5.405199998E-04
 
   2
   s  14
  1.053749500E+05  1.238600013E-04
  1.567924000E+04  5.120100053E-04
  3.534544700E+03  2.152910022E-03
  9.873651600E+02  8.528440089E-03
  3.159787500E+02  3.018049031E-02
  1.116542800E+02  9.099702095E-02
  4.269945100E+01  2.177936423E-01
  1.739559600E+01  3.686245738E-01
  7.438309000E+00  3.366707335E-01
  3.222862000E+00  9.657630101E-02
  1.253877000E+00  2.144520022E-03
  4.951550000E-01  1.194350012E-03
  1.916650000E-01  5.390200056E-04
  6.708300000E-02  2.103400022E-04
   s  14
  1.053749500E+05 -2.815000008E-05
  1.567924000E+04 -1.163000003E-04
  3.534544700E+03 -4.909200013E-04
  9.873651600E+02 -1.946160005E-03
  3.159787500E+02 -7.005300019E-03
  1.116542800E+02 -2.167814006E-02
  4.269945100E+01 -5.641213015E-02
  1.739559600E+01 -1.127053003E-01
  7.438309000E+00 -1.589119704E-01
  3.222862000E+00 -3.355083009E-02
  1.253877000E+00  3.531902810E-01
  4.951550000E-01  5.534199315E-01
  1.916650000E-01  2.301839106E-01
  6.708300000E-02  1.127267003E-02
   p   9
  2.000000000E+02  9.173000030E-04
  4.653336700E+01  7.377140024E-03
  1.462180900E+01  3.483515011E-02
  5.313064000E+00  1.144397004E-01
  2.102525000E+00  2.554966408E-01
  8.502230000E-01  3.722557412E-01
  3.375970000E-01  3.323314911E-01
  1.288920000E-01  1.400847905E-01
  4.511200000E-02  2.395784008E-02
 
[MO]
Sym=     1a  
Ene=   -21.0950
Spin= Alpha
Occup=    1.00000
   1        -0.00081724
   2        -0.00684591
   3        -0.00000000
   4         0.00000000
   5        -0.00238634
   6         1.00099478
   7         0.00708909
   8        -0.00000000
   9        -0.00000000
  10        -0.00756674
Sym=     1a  
Ene=   -21.0710
Spin= Beta
Occup=    1.00000
   1        -0.00033898
   2        -0.00545061
   3        -0.00000000
   4         0.00000000
   5        -0.00160195
   6         1.00074537
   7         0.00492453
   8        -0.00000000
   9        -0.00000000
  10        -0.00701939
Sym=     2a  
Ene=   -16.0310
Spin= Alpha
Occup=    1.00000
   1         1.00065156
   2         0.00073857
   3         0.00000000
   4         0.00000000
   5         0.00991766
   6        -0.00542702
   7        -0.00684228
   8         0.00000000
   9        -0.00000000
  10        -0.00045784
Sym=     2a  
Ene=   -16.0010
Spin= Beta
Occup=    1.00000
   1         1.00028531
   2        -0.00241146
   3        -0.00000000
   4         0.00000000
   5         0.00908352
   6        -0.00514736
   7        -0.00483417
   8         0.00000000
   9        -0.00000000
  10        -0.00124843
Sym=     3a  
Ene=    -2.1415
Spin= Alpha
Occup=    1.00000
   1        -0.13501060
   2         0.19884866
   3         0.00000000
   4         0.00000000
   5         0.28224783
   6        -0.06386044
   7         0.58012138
   8        -0.00000000
   9         0.00000000
  10        -0.40382395
Sym=     3a  
Ene=    -2.1034
Spin= Beta
Occup=    1.00000
   1        -0.13594441
   2         0.18794005
   3        -0.00000000
   4         0.00000000
   5         0.29373026
   6        -0.06400896
   7         0.57307930
   8        -0.00000000
   9         0.00000000
  10        -0.41712652
Sym=     4a  
Ene=    -1.1164
Spin= Alpha
Occup=    1.00000
   1         0.00000000
   2        -0.00000000
   3         0.39941876
   4         0.24029512
   5         0.00000000
   6         0.00000000
   7         0.00000000
   8         0.58989138
   9         0.35488573
  10         0.00000000
Sym=     4a  
Ene=    -0.9988
Spin= Beta
Occup=    1.00000
   1         0.00000000
   2        -0.00000000
   3        -0.23657184
   4         0.39322993
   5         0.00000000
   6         0.00000000
   7         0.00000000
   8        -0.35812499
   9         0.59527568
  10         0.00000000
Sym=     5a  
Ene=    -1.0158
Spin= Alpha
Occup=    1.00000
   1         0.00000000
   2        -0.00000000
   3        -0.23981218
   4         0.39861602
   5        -0.00000000
   6         0.00000000
   7         0.00000000
   8        -0.35530742
   9         0.59059231
  10         0.00000000
Sym=     5a  
Ene=    -0.9547
Spin= Beta
Occup=    1.00000
   1         0.00000000
   2        -0.00000000
   3         0.38658681
   4         0.23257526
   5        -0.00000000
   6         0.00000000
   7         0.00000000
   8         0.60100541
   9         0.36157206
  10         0.00000000
Sym=     6a  
Ene=    -1.0000
Spin= Alpha
Occup=    1.00000
   1         0.03511294
   2        -0.33946969
   3         0.00000000
   4        -0.00000000
   5        -0.07102574
   6         0.04474989
   7         0.75012049
   8         0.00000000
   9        -0.00000000
  10         0.67648697
Sym=     6a  
Ene=    -0.9404
Spin= Beta
Occup=    1.00000
   1         0.05043497
   2        -0.19558042
   3        -0.00000000
   4        -0.00000000
   5        -0.12343743
   6         0.03979266
   7         0.71517730
   8        -0.00000000
   9        -0.00000000
  10         0.74117310
Sym=     7a  
Ene=    -0.8069
Spin= Alpha
Occup=    1.00000
   1         0.08365068
   2         0.84760728
   3         0.00000000
   4         0.00000000
   5        -0.63643140
   6         0.01605595
   7        -0.01528184
   8        -0.00000000
   9         0.00000000
  10         0.43163385
Sym=     7a  
Ene=    -0.7407
Spin= Beta
Occup=    1.00000
   1         0.07105274
   2         0.85715218
   3         0.00000000
   4        -0.00000000
   5        -0.64032767
   6         0.01527474
   7        -0.06992641
   8        -0.00000000
   9         0.00000000
  10         0.31756734
Sym=     8a  
Ene=    -0.3494
Spin= Alpha
Occup=    1.00000
   1        -0.00000000
   2        -0.00000000
   3        -0.89214768
   4        -0.53672674
   5        -0.00000000
   6         0.00000000
   7         0.00000000
   8         0.77941708
   9         0.46890666
  10        -0.00000000
Sym=     8a  
Ene=     0.2889
Spin= Beta
Occup=    0.00000
   1        -0.00000000
   2        -0.00000000
   3         0.53837822
   4        -0.89489276
   5         0.00000000
   6         0.00000000
   7         0.00000000
   8        -0.46643738
   9         0.77531264
  10        -0.00000000
Sym=     9a  
Ene=     0.2597
Spin= Alpha
Occup=    0.00000
   1        -0.00000000
   2        -0.00000000
   3         0.53694270
   4        -0.89250663
   5         0.00000000
   6         0.00000000
   7         0.00000000
   8        -0.46858722
   9         0.77888609
  10        -0.00000000
Sym=     9a  
Ene=     0.3435
Spin= Beta
Occup=    0.00000
   1        -0.00000000
   2        -0.00000000
   3        -0.89778252
   4        -0.54011674
   5        -0.00000000
   6         0.00000000
   7         0.00000000
   8         0.77087958
   9         0.46377040
  10        -0.00000000
Sym=    10a  
Ene=     1.7986
Spin= Alpha
Occup=    0.00000
   1         0.46996950
   2         2.07943580
   3        -0.00000000
   4        -0.00000000
   5         1.58881789
   6        -0.43293330
   7        -2.19013475
   8         0.00000000
   9         0.00000000
  10         1.32704445
Sym=    10a  
Ene=     1.8555
Spin= Beta
Occup=    0.00000
   1         0.47115801
   2         2.09499420
   3        -0.00000000
   4        -0.00000000
   5         1.58195477
   6        -0.43400235
   7        -2.20259088
   8         0.00000000
   9         0.00000000
  10         1.32056377
