[Molden Format]
[N_Atoms]
                     2
[Atoms] (AU)
B1          1      5           0.00000000      0.00000000      0.00000000
H2          2      1           0.00000000      0.00000000      1.13383567
[Charge] (Mulliken)
   2.50888018095948     
 -0.508880180959479     
[GTO] (AU)
   1
   s  14
  3.336021700E+04  1.039699991E-04
  4.972095200E+03  5.254399956E-04
  1.125641700E+03  2.509059979E-03
  3.164913600E+02  1.031887991E-02
  1.020072600E+02  3.636632969E-02
  3.629587300E+01  1.064607991E-01
  1.397141000E+01  2.403999880E-01
  5.741156000E+00  3.748581168E-01
  2.494268000E+00  3.100066974E-01
  1.114202000E+00  7.922455933E-02
  4.215490000E-01 -4.947589958E-03
  1.696330000E-01 -7.737119935E-03
  6.853500000E-02 -1.501079987E-03
  2.398700000E-02 -1.333299989E-04
   s  14
  3.336021700E+04 -2.030000008E-05
  4.972095200E+03 -1.025700004E-04
  1.125641700E+03 -4.911300020E-04
  3.164913600E+02 -2.026570008E-03
  1.020072600E+02 -7.261010030E-03
  3.629587300E+01 -2.197722009E-02
  1.397141000E+01 -5.408428022E-02
  5.741156000E+00 -1.022402604E-01
  2.494268000E+00 -1.423595206E-01
  1.114202000E+00 -4.658690019E-02
  4.215490000E-01  3.799402916E-01
  1.696330000E-01  5.890463624E-01
  6.853500000E-02  1.749075107E-01
  2.398700000E-02 -1.142030005E-03
   p   9
  5.500000000E+01  1.229800005E-03
  1.336610100E+01  8.827380035E-03
  4.135394000E+00  3.843340015E-02
  1.481256000E+00  1.150031805E-01
  6.021360000E-01  2.733674011E-01
  2.556360000E-01  4.061972116E-01
  1.111510000E-01  3.014967912E-01
  4.764800000E-02  7.684809030E-02
  1.667700000E-02 -8.170000032E-06
 
   2
   s   8
  1.886144500E+02  9.638500027E-04
  2.827659600E+01  7.491960021E-03
  6.424830000E+00  3.759541011E-02
  1.815041000E+00  1.433949804E-01
  5.910630000E-01  3.486363010E-01
  2.121490000E-01  4.382973612E-01
  7.989100000E-02  1.651066105E-01
  2.796200000E-02  2.102287006E-02
 
[MO]
Sym=     1a  
Ene=    -9.1023
Spin= Alpha
Occup=    2.00000
   1         0.99975196
   2        -0.00047256
   3        -0.00000000
   4        -0.00000000
   5        -0.00443760
   6         0.00100780
Sym=     2a  
Ene=    -1.5821
Spin= Alpha
Occup=    1.98954
   1        -0.18458155
   2         0.21348955
   3        -0.00000000
   4         0.00000000
   5         0.12742645
   6         0.78157704
Sym=     3a  
Ene=     0.1056
Spin= Alpha
Occup=    0.01046
   1        -0.58892622
   2        -2.45944041
   3         0.00000000
   4         0.00000000
   5        -0.70272861
   6         2.47951880
Sym=     4a  
Ene=    -0.7827
Spin= Alpha
Occup=    0.00000
   1         0.00000000
   2         0.00000000
   3         0.74145253
   4         0.67100532
   5        -0.00000000
   6        -0.00000000
Sym=     5a  
Ene=    -0.7827
Spin= Alpha
Occup=    0.00000
   1         0.00000000
   2        -0.00000000
   3        -0.67100532
   4         0.74145253
   5         0.00000000
   6        -0.00000000
Sym=     6a  
Ene=    -0.0054
Spin= Alpha
Occup=    0.00000
   1        -0.61477752
   2        -1.78509756
   3        -0.00000000
   4         0.00000000
   5        -1.94919570
   6         2.56708582
