[Molden Format]
[N_Atoms]
                     2
[Atoms] (AU)
F1          1      9           0.00000000      0.00000000      0.00000000
O2          2      8           0.00000000      0.00000000      3.77945225
[Charge] (Mulliken)
 -1.200909956520668E-002
  1.200909956515339E-002
[GTO] (AU)
   1
   s  14
  1.031094600E+05  1.713099991E-04
  1.528100700E+04  7.123999962E-04
  3.441539200E+03  2.990479984E-03
  9.670948300E+02  1.164036994E-02
  3.140353400E+02  3.968642979E-02
  1.134423000E+02  1.128546094E-01
  4.464472700E+01  2.473650687E-01
  1.894287400E+01  3.672702681E-01
  8.532743000E+00  2.896286985E-01
  3.919401000E+00  7.786681959E-02
  1.568157000E+00  4.562139976E-03
  6.232900000E-01  2.468879987E-03
  2.408610000E-01  1.106309994E-03
  8.430100000E-02  1.739699991E-04
   s  14
  1.031094600E+05 -4.044999995E-05
  1.528100700E+04 -1.682299998E-04
  3.441539200E+03 -7.084299991E-04
  9.670948300E+02 -2.767999996E-03
  3.140353400E+02 -9.611379987E-03
  1.134423000E+02 -2.833957996E-02
  4.464472700E+01 -6.839343991E-02
  1.894287400E+01 -1.237379298E-01
  8.532743000E+00 -1.512859698E-01
  3.919401000E+00 -9.099909988E-03
  1.568157000E+00  3.716257695E-01
  6.232900000E-01  5.500214393E-01
  2.408610000E-01  2.092318697E-01
  8.430100000E-02  8.074639989E-03
   p   9
  2.453302900E+02  1.024860004E-03
  5.691900500E+01  8.344290032E-03
  1.760456800E+01  4.078927016E-02
  6.274995000E+00  1.351370605E-01
  2.447030000E+00  2.798830811E-01
  9.950600000E-01  3.597966414E-01
  4.039730000E-01  3.055347412E-01
  1.548100000E-01  1.354703905E-01
  5.418400000E-02  2.804449011E-02
 
   2
   s  14
  1.053749500E+05  1.238600013E-04
  1.567924000E+04  5.120100053E-04
  3.534544700E+03  2.152910022E-03
  9.873651600E+02  8.528440089E-03
  3.159787500E+02  3.018049031E-02
  1.116542800E+02  9.099702095E-02
  4.269945100E+01  2.177936423E-01
  1.739559600E+01  3.686245738E-01
  7.438309000E+00  3.366707335E-01
  3.222862000E+00  9.657630101E-02
  1.253877000E+00  2.144520022E-03
  4.951550000E-01  1.194350012E-03
  1.916650000E-01  5.390200056E-04
  6.708300000E-02  2.103400022E-04
   s  14
  1.053749500E+05 -2.815000008E-05
  1.567924000E+04 -1.163000003E-04
  3.534544700E+03 -4.909200013E-04
  9.873651600E+02 -1.946160005E-03
  3.159787500E+02 -7.005300019E-03
  1.116542800E+02 -2.167814006E-02
  4.269945100E+01 -5.641213015E-02
  1.739559600E+01 -1.127053003E-01
  7.438309000E+00 -1.589119704E-01
  3.222862000E+00 -3.355083009E-02
  1.253877000E+00  3.531902810E-01
  4.951550000E-01  5.534199315E-01
  1.916650000E-01  2.301839106E-01
  6.708300000E-02  1.127267003E-02
   p   9
  2.000000000E+02  9.173000030E-04
  4.653336700E+01  7.377140024E-03
  1.462180900E+01  3.483515011E-02
  5.313064000E+00  1.144397004E-01
  2.102525000E+00  2.554966408E-01
  8.502230000E-01  3.722557412E-01
  3.375970000E-01  3.323314911E-01
  1.288920000E-01  1.400847905E-01
  4.511200000E-02  2.395784008E-02
 
[MO]
Sym=     1a  
Ene=   -26.4180
Spin= Alpha
Occup=    1.00000
   1         0.99999176
   2        -0.00416338
   3        -0.00000000
   4         0.00000000
   5         0.00006037
   6        -0.00000443
   7        -0.00005233
   8        -0.00000000
   9         0.00000000
  10         0.00003594
Sym=     1a  
Ene=   -26.4580
Spin= Beta
Occup=    1.00000
   1         0.99999819
   2        -0.00246690
   3         0.00000000
   4         0.00000000
   5         0.00007630
   6        -0.00000722
   7        -0.00010480
   8        -0.00000000
   9        -0.00000000
  10         0.00011310
Sym=     2a  
Ene=   -20.7750
Spin= Alpha
Occup=    1.00000
   1        -0.00001510
   2        -0.00017350
   3        -0.00000000
   4        -0.00000000
   5        -0.00017951
   6         1.00000053
   7         0.00158287
   8         0.00000000
   9        -0.00000000
  10        -0.00009749
Sym=     2a  
Ene=   -20.7060
Spin= Beta
Occup=    1.00000
   1        -0.00000583
   2        -0.00003828
   3        -0.00000000
   4        -0.00000000
   5        -0.00000019
   6         0.99999778
   7        -0.00213375
   8         0.00000000
   9        -0.00000000
  10        -0.00006649
Sym=     3a  
Ene=    -1.5296
Spin= Alpha
Occup=    1.00000
   1         0.00304958
   2         0.94660830
   3        -0.00000000
   4        -0.00000000
   5         0.00785835
   6        -0.00192637
   7         0.26474613
   8        -0.00000000
   9         0.00000000
  10        -0.03480220
Sym=     3a  
Ene=    -1.6906
Spin= Beta
Occup=    1.00000
   1         0.00233855
   2         0.99709577
   3        -0.00000000
   4        -0.00000000
   5         0.01150650
   6        -0.00150466
   7         0.02889991
   8        -0.00000000
   9         0.00000000
  10        -0.00826681
Sym=     4a  
Ene=    -1.4271
Spin= Alpha
Occup=    1.00000
   1        -0.00346323
   2        -0.31271240
   3         0.00000000
   4         0.00000000
   5         0.01297502
   6        -0.00112754
   7         0.96381994
   8         0.00000000
   9         0.00000000
  10         0.00231881
Sym=     4a  
Ene=    -1.1348
Spin= Beta
Occup=    1.00000
   1        -0.00253581
   2        -0.08095634
   3         0.00000000
   4         0.00000000
   5         0.12944407
   6         0.00116451
   7         0.97803230
   8         0.00000000
   9         0.00000000
  10        -0.00977938
Sym=     5a  
Ene=    -0.7328
Spin= Alpha
Occup=    1.00000
   1         0.00000000
   2         0.00000000
   3        -0.13008087
   4         0.52503409
   5        -0.00000000
   6         0.00000000
   7         0.00000000
   8        -0.19566493
   9         0.78974528
  10         0.00000000
Sym=     5a  
Ene=    -0.8336
Spin= Beta
Occup=    1.00000
   1         0.00008141
   2        -0.00221207
   3         0.00000000
   4         0.00000000
   5         0.99019603
   6        -0.00849110
   7        -0.23917957
   8        -0.00000000
   9         0.00000000
  10        -0.04733164
Sym=     6a  
Ene=    -0.7201
Spin= Alpha
Occup=    1.00000
   1         0.00906370
   2         0.14285199
   3         0.00000000
   4         0.00000000
   5        -0.09330806
   6         0.00058654
   7         0.01496481
   8         0.00000000
   9        -0.00000000
  10         0.98912342
Sym=     6a  
Ene=    -0.7512
Spin= Beta
Occup=    1.00000
   1        -0.00000000
   2         0.00000000
   3         0.96465422
   4         0.23899984
   5        -0.00000000
   6         0.00000000
   7         0.00000000
   8         0.06889850
   9         0.01707009
  10        -0.00000000
Sym=     7a  
Ene=    -0.7113
Spin= Alpha
Occup=    1.00000
   1        -0.00000000
   2        -0.00000000
   3         0.93457304
   4         0.23154702
   5        -0.00000000
   6         0.00000000
   7         0.00000000
   8         0.21834112
   9         0.05409554
  10        -0.00000000
Sym=     7a  
Ene=    -0.7497
Spin= Beta
Occup=    1.00000
   1         0.00000000
   2        -0.00000000
   3        -0.24032118
   4         0.96998743
   5        -0.00000000
   6         0.00000000
   7        -0.00000000
   8        -0.00286327
   9         0.01155677
  10         0.00000000
Sym=     8a  
Ene=    -0.6964
Spin= Alpha
Occup=    1.00000
   1         0.00000000
   2         0.00000000
   3         0.20264993
   4        -0.81793824
   5         0.00000000
   6        -0.00000000
   7        -0.00000000
   8        -0.14036832
   9         0.56655640
  10         0.00000000
Sym=     8a  
Ene=    -0.5628
Spin= Beta
Occup=    1.00000
   1        -0.00000000
   2        -0.00000000
   3        -0.11885279
   4        -0.02944661
   5         0.00000000
   6        -0.00000000
   7        -0.00000000
   8         0.96950335
   9         0.24020125
  10        -0.00000000
Sym=     9a  
Ene=    -0.6373
Spin= Alpha
Occup=    1.00000
   1         0.00000000
   2         0.00000000
   3        -0.26694004
   4        -0.06613626
   5         0.00000000
   6        -0.00000000
   7        -0.00000000
   8         0.94710660
   9         0.23465230
  10         0.00000000
Sym=     9a  
Ene=     0.1163
Spin= Beta
Occup=    0.00000
   1         0.00000000
   2         0.00000000
   3         0.01528913
   4        -0.06171018
   5         0.00000000
   6        -0.00000000
   7        -0.00000000
   8        -0.24079001
   9         0.97187972
  10         0.00000000
Sym=    10a  
Ene=     0.0817
Spin= Alpha
Occup=    0.00000
   1         0.00228300
   2         0.03000110
   3         0.00000000
   4         0.00000000
   5         1.01028721
   6        -0.00821475
   7        -0.12566794
   8        -0.00000000
   9        -0.00000000
  10         0.22399901
Sym=    10a  
Ene=     0.1295
Spin= Beta
Occup=    0.00000
   1         0.00915915
   2         0.12006485
   3         0.00000000
   4         0.00000000
   5         0.17955623
   6        -0.00160762
   7        -0.02155111
   8         0.00000000
   9        -0.00000000
  10         1.01358423
