   This run of MOLCAS is using the pymolcas driver

                             OPE
                             OPE          NMOL  CASOP  ENMOLC A   SO
                 OPE        NMOLC        AS  OP EN  MO LC     AS  OP
                OPENM       OL CA        SO  PE NM  OL CA     SOP EN
                OP EN      MO   LC       AS  OP ENMOL  CASO   PENMOL
                OP  EN     MO   LC       AS  OP EN     MO     LC ASO
               OP   E  NMOL  C  AS       OP  EN MO     LC     AS  OP
               OP  E   NMO   LC AS        OPEN  MO     LCASOP EN   M
               O  PEN   MO  LCA  SO
            OPE   NMO   L   CAS    OP
        OPENMOL  CASOP     ENMOL   CASOPE
     OPENMOLCA   SOPENMOLCASOPEN   MOLCASOPE
    OPENMOLCAS   OP           EN   MOL    CAS
    OPENMOLCAS       OP  ENM        O     LCA
    OPENMOLCAS    OPEN  MOLCASO     P  E  NMO
    OPENMOLCAS     OP               E  N  MOL
    OPENMOLCA   SO           PENM   O  L  CAS    OPEN    MO    LCAS
    OPENMOLCA   SOP           ENM   O  L  CAS   OP  EN  MOLC  AS   O
    OPENMOLCA   SOPE           NM      O  LCA   S      OP  EN MO
    OPENMOLC                AS         O  PEN   M      OL  CA  SOPE
    OPENMO        LCASOPE  NMOL        C  ASO   P      ENMOLC     AS
    OPE     NMO      LCA  SO     P     E   NM   OL  CA SO  PE N   MO
          OPENMOLCA            SOPE   NMO        LCAS  O    P  ENMO
     OPENMOLCASOPENMOLCASOPENMOLCASOPENMOLCA
        OPENMOLCASOPENMOLCASOPENMOLCASOPE
            OPENMOLCASOPENMOLCASOPENM
               OPENMOLCASOPENMOLCA        version: ea724fe96-dirty
                   OPENMOLCASO
                       OPE                tag:

 OpenMolcas is free software; you can redistribute it and/or modify it
 under the terms of the GNU Lesser General Public License version 2.1.
 OpenMolcas is distributed in the hope that it will be useful, but it
 is provided "as is" and without any express or implied warranties.
 For more details see the full text of the license in the file
 LICENSE or in <http://www.gnu.org/licenses/>.

                 Copyright (C) The OpenMolcas Authors
           For the author list and the recommended citation,
                   consult the file CONTRIBUTORS.md

           *************************************************
           * pymolcas version py2.28                       *
           *   build c4a6d18ded8cb6cad61d2372a9abd97c      *
           *   (after the EMIL interpreter by V. Veryazov) *
           *************************************************

configuration info
------------------
C Compiler ID: Intel
C flags: -std=gnu99
Fortran Compiler ID: Intel
Fortran flags: -fpp -i8 -r8 -heap-arrays
Definitions: _MOLCAS_;_I8_;_LINUX_
Parallel: OFF (GA=OFF)


   --------------------------------------------------------------------------------
  |
  |              Project: ozone_151.75
  |       Submitted from: /home/grierjones/DDCASPT2/ozone/ANO-RCC-VTZP/ozone_151.75
  |         Scratch area: /tmp/ozone_151.75
  |      Save outputs to: /home/grierjones/DDCASPT2/ozone/ANO-RCC-VTZP/ozone_151.75
  |               Molcas: /home/grierjones/Test/build
  |
  | Scratch area is empty
  |
  |       MOLCAS_DRIVER = /usr/local/pymolcas
  | MOLCAS_KEEP_WORKDIR = NO
  |  MOLCAS_NEW_WORKDIR = YES
  |       MOLCAS_NPROCS = 1
  |        MOLCAS_PRINT = NORMAL
  |       MOLCAS_SOURCE = /home/grierjones/Test/build
  |    MOLCAS_STRUCTURE = 0
  |
   --------------------------------------------------------------------------------

++ ---------   Input file   ---------

&GATEWAY
coord=ozone_151.75.xyz
Basis = ANO-RCC-VTZP
Group = nosymm
Expert
End of Input

&SEWARD
End of Input

&SCF

>>> COPY $WorkDir/ozone_151.75.scf.h5 $CurrDir/

&RASSCF
Title= RASSCF
FileOrb
/home/grierjones/DDCASPT2/ozone/ANO-RCC-VTZP/ozone_151.50/ozone_151.50.RasOrb
NACTEL
4 0 0
Inactive
10
RAS2
3
Symmetry
1
Spin
1
orblisting
all
ITERation
300 200

>>> COPY $WorkDir/ozone_151.75.rasscf.h5 $CurrDir/

>>> COPY $WorkDir/GMJ_Fock_MO.csv $CurrDir/ozone_151.75.GMJ_Fock_MO.csv

>>> COPY $WorkDir/GMJ_PT2_Fock_MO.csv $CurrDir/ozone_151.75.GMJ_PT2_Fock_MO.csv

&MOTRA
Frozen=0
LUMORB

>>> COPY $WorkDir/GMJ_one_int_indx.csv $CurrDir/ozone_151.75.GMJ_one_int_indx.csv

>>> COPY $WorkDir/GMJ_one_int.csv $CurrDir/ozone_151.75.GMJ_one_int.csv

>>> COPY $WorkDir/GMJ_two_int_indx.csv $CurrDir/ozone_151.75.GMJ_two_int_indx.csv

>>> COPY $WorkDir/GMJ_two_int.csv $CurrDir/ozone_151.75.GMJ_two_int.csv

&CASPT2
Frozen
0
MAXITER
50

>>> FOREACH i IN (B,E,F,G,H)

  >>> FOREACH j IN (P,M)

    >>> IF (-FILE GMJ_e2_${i}_${j}.csv)

      >>> COPY $WorkDir/GMJ_RHS_${i}_${j}.csv $CurrDir/GMJ_RHS_${i}_${j}.csv

      >>> COPY $WorkDir/GMJ_IVECW_${i}_${j}.csv $CurrDir/GMJ_IVECW_${i}_${j}.csv

      >>> COPY $WorkDir/GMJ_IVECX_${i}_${j}.csv $CurrDir/GMJ_IVECX_${i}_${j}.csv

      >>> COPY $WorkDir/GMJ_IVECC2_${i}_${j}.csv $CurrDir/GMJ_IVECC2_${i}_${j}.csv

      >>> COPY $WorkDir/GMJ_e2_${i}_${j}.csv $CurrDir/GMJ_e2_${i}_${j}.csv

    >>> END IF

  >>> END FOREACH

>>> END FOREACH

>>> FOREACH i IN (A,C,D)

  >>> IF (-FILE GMJ_e2_$i.csv)

    >>> COPY $WorkDir/GMJ_RHS_$i.csv $CurrDir/GMJ_RHS_$i.csv

    >>> COPY $WorkDir/GMJ_IVECW_$i.csv $CurrDir/GMJ_IVECW_$i.csv

    >>> COPY $WorkDir/GMJ_IVECX_$i.csv $CurrDir/GMJ_IVECX_$i.csv

    >>> COPY $WorkDir/GMJ_IVECC2_$i.csv $CurrDir/GMJ_IVECC2_$i.csv

    >>> COPY $WorkDir/GMJ_e2_$i.csv $CurrDir/GMJ_e2_$i.csv

  >>> END IF

>>> END FOREACH

-- ----------------------------------

--- Start Module: gateway at Thu Jan  2 03:27:08 2025 ---
 
()()()()()()()()()()()()()()()()()()()()()()()()()()()()()()()()()()()()()()()()()()()()()()()()()()

                                              &GATEWAY

                                   only a single process is used
                       available to each process: 2.0 GB of memory, 1 thread?
()()()()()()()()()()()()()()()()()()()()()()()()()()()()()()()()()()()()()()()()()()()()()()()()()()
 
 ###############################################################################
 ###############################################################################
 ###                                                                         ###
 ###                                                                         ###
 ###                                                                         ###
 ###    WARNING: EXPERT option is ON!                                        ###
 ###                                                                         ###
 ###                                                                         ###
 ###############################################################################
 ###############################################################################
 
++    Symmetry information:
      ---------------------
 
                    Character Table for C1 
 
                             E  
                    a        1  x, y, xy, Rz, z, xz, Ry, yz, Rx, I
--
 
 
++    Basis set information:
      ----------------------
 
 
      Basis set label: O.ANO-RCC...4S3P2D1F.
 
      Electronic valence basis set:
      ------------------
      Associated Effective Charge   8.000000 au
      Associated Actual Charge      8.000000 au
      Nuclear Model: Point charge
 
      Shell  nPrim  nBasis  Cartesian Spherical Contaminant
         s      14       4        X                  
         p       9       3        X                  
         d       4       2                 X         
         f       3       1                 X         
--
 
 
++    Molecular structure info:
      -------------------------
 
                    ************************************************ 
                    **** Cartesian Coordinates / Bohr, Angstrom **** 
                    ************************************************ 
 
     Center  Label                x              y              z                     x              y              z
        1      O1               0.589370       2.342051       0.000000              0.311881       1.239360       0.000000
        2      O2               0.000000       0.000000       0.000000              0.000000       0.000000       0.000000
        3      O3               0.589370      -2.342051       0.000000              0.311881      -1.239360       0.000000
 
                    *************************************** 
                    *    InterNuclear Distances / Bohr    * 
                    *************************************** 
 
               1 O1            2 O2            3 O3    
    1 O1       0.000000
    2 O2       2.415069        0.000000
    3 O3       4.684102        2.415069        0.000000
 
                    ******************************************* 
                    *    InterNuclear Distances / Angstrom    * 
                    ******************************************* 
 
               1 O1            2 O2            3 O3    
    1 O1       0.000000
    2 O2       1.278000        0.000000
    3 O3       2.478720        1.278000        0.000000
 
                    ************************************** 
                    *    Valence Bond Angles / Degree    * 
                    ************************************** 
                          Atom centers                 Phi
                      1 O1       2 O2       3 O3       151.75
--
 
 
            Nuclear Potential Energy             66.66378923 au
 
 ###############################################################################
 ###############################################################################
 ###                                                                         ###
 ###                                                                         ###
 ###    There were warnings during the execution                             ###
 ###    Please, check the output with care!                                  ###
 ###                                                                         ###
 ###                                                                         ###
 ###############################################################################
 ###############################################################################
--- Stop Module: gateway at Thu Jan  2 03:27:08 2025 /rc=_RC_ALL_IS_WELL_ ---
*** files: xmldump
    saved to directory /home/grierjones/DDCASPT2/ozone/ANO-RCC-VTZP/ozone_151.75

--- Start Module: seward at Thu Jan  2 03:27:08 2025 ---
 
()()()()()()()()()()()()()()()()()()()()()()()()()()()()()()()()()()()()()()()()()()()()()()()()()()

                                              &SEWARD

                                   only a single process is used
                       available to each process: 2.0 GB of memory, 1 thread?
()()()()()()()()()()()()()()()()()()()()()()()()()()()()()()()()()()()()()()()()()()()()()()()()()()
 
 ###############################################################################
 ###############################################################################
 ###                                                                         ###
 ###                                                                         ###
 ###                                                                         ###
 ###    WARNING: EXPERT option is ON!                                        ###
 ###                                                                         ###
 ###                                                                         ###
 ###############################################################################
 ###############################################################################
               SEWARD will generate:
                  Multipole Moment integrals up to order  2
                  Kinetic Energy integrals
                  Nuclear Attraction integrals (point charge)
                  One-Electron Hamiltonian integrals
                  Velocity integrals
                  Relativistic Douglas-Kroll-Hess integrals:
                    - Parametrization         : EXP
                    - DKH order of Hamiltonian: 2
                    - DKH order of Properties : 0
                         - multipole moment operators
                         - electric potential operators
                         - contact operators
                  Atomic mean-field integrals
                  Two-Electron Repulsion integrals
 
                   Integrals are discarded if absolute value <: 0.10E-13
                   Integral cutoff threshold is set to       <: 0.10E-15
 
            Nuclear Potential Energy             66.66378923 au
 
 
      Basis set specifications :
      Symmetry species         a  
      Basis functions           90
 
 
  Input file to MOLDEN was generated!
 
 ###############################################################################
 ###############################################################################
 ###                                                                         ###
 ###                                                                         ###
 ###    There were warnings during the execution                             ###
 ###    Please, check the output with care!                                  ###
 ###                                                                         ###
 ###                                                                         ###
 ###############################################################################
 ###############################################################################
--- Stop Module: seward at Thu Jan  2 03:27:11 2025 /rc=_RC_ALL_IS_WELL_ ---
*** files: ozone_151.75.GssOrb ozone_151.75.guessorb.h5 ozone_151.75.guessorb.molden xmldump
    saved to directory /home/grierjones/DDCASPT2/ozone/ANO-RCC-VTZP/ozone_151.75
--- Module seward spent 2 seconds ---

*** symbolic link created: INPORB -> ozone_151.75.GssOrb
--- Start Module: scf at Thu Jan  2 03:27:11 2025 ---
 
()()()()()()()()()()()()()()()()()()()()()()()()()()()()()()()()()()()()()()()()()()()()()()()()()()

                                                &SCF

                                   only a single process is used
                       available to each process: 2.0 GB of memory, 1 thread?
()()()()()()()()()()()()()()()()()()()()()()()()()()()()()()()()()()()()()()()()()()()()()()()()()()
 
++    Input section:
      --------------
 
      Header of the integral files:
      
       Integrals generated by seward 4.2.0  , Thu Jan  2 03:27:08 2025
 
 
      Cartesian coordinates in Angstrom:
      -----------------------------------------------------
      No.  Label        X            Y            Z        
      -----------------------------------------------------
       1   O1         0.31188100   1.23936000   0.00000000
       2   O2         0.00000000   0.00000000   0.00000000
       3   O3         0.31188100  -1.23936000   0.00000000
      -----------------------------------------------------
      Nuclear repulsion energy =   66.66378923
--
 
++    Orbital specifications:
      -----------------------
 
      Symmetry species               1
                                     a
      Frozen orbitals                0
      Occupied orbitals             12
      Secondary orbitals            78
      Deleted orbitals               0
      Total number of orbitals      90
      Number of basis functions     90
--
 
      Molecular charge                           0.000
 
++    Optimization specifications:
      ----------------------------
 
      SCF Algorithm: Conventional
      Minimized density differences are used
      Number of density matrices in core                5
      Maximum number of NDDO SCF iterations           400
      Maximum number of HF SCF iterations             400
      Threshold for SCF energy change            0.10E-08
      Threshold for density matrix               0.10E-03
      Threshold for Fock matrix                  0.15E-03
      Threshold for linear dependence            0.10E-08
      Threshold at which DIIS is turned on       0.15E+00
      Threshold at which QNR/C2DIIS is turned on 0.75E-01
      Threshold for Norm(delta) (QNR/C2DIIS)     0.20E-04
      DIIS extrapolation of the SCF procedure
      All orbitals punched on: SCFORB
--
 
      Input vectors read from INPORB
      Orbital file label: *Guess orbitals
 
 
++ Convergence information
                                   SCF        iterations: Energy and convergence statistics
 
Iter     Tot. SCF        One-elec.       Two-elec.     Energy      Max Dij or  Max Fij      DNorm      TNorm      AccCon     Time
         Energy          Energy          Energy        Change      Delta Norm                                                in Sec.
   1  -223.919330198  -437.107040889   146.523921465   0.00E+00    0.57E+00*   0.26E+00*    0.73E+01   0.11E+03   None         0.
   2  -224.134875905  -443.231167239   152.432502108  -0.22E+00*   0.27E+00*   0.18E+00*    0.26E+01   0.11E+03   EDIIS        0.
   3  -224.408316547  -440.526213592   149.454107819  -0.27E+00*   0.21E+00*   0.80E-01*    0.72E+00   0.11E+03   EDIIS        0.
   4  -224.417667549  -441.425254403   150.343797629  -0.94E-02*   0.35E-01*   0.49E-01*    0.23E+00   0.11E+03   EDIIS        0.
   5  -224.453700700  -440.941836022   149.824346095  -0.36E-01*   0.12E-01*   0.60E-02*    0.45E-01   0.11E+03   c2DIIS       0.
   6  -224.454198212  -440.988452617   149.870465179  -0.50E-03*   0.57E-02*   0.24E-02*    0.12E-01   0.11E+03   QNRc2DIIS    0.
   7  -224.454295666  -440.988580194   149.870495303  -0.97E-04*   0.12E-01*   0.22E-02*    0.39E-02   0.11E+03   QNRc2DIIS    0.
   8  -224.454362086  -440.983354026   149.865202715  -0.66E-04*   0.20E-02*   0.12E-02*    0.27E-02   0.11E+03   QNRc2DIIS    0.
   9  -224.454369359  -440.992573607   149.874415023  -0.73E-05*   0.95E-03*   0.62E-03*    0.11E-02   0.11E+03   QNRc2DIIS    0.
  10  -224.454372080  -440.987500037   149.869338731  -0.27E-05*   0.25E-03*   0.65E-04     0.10E-02   0.11E+03   QNRc2DIIS    0.
  11  -224.454372159  -440.989867433   149.871706048  -0.79E-07*   0.11E-03*   0.45E-04     0.46E-03   0.11E+03   QNRc2DIIS    0.
  12  -224.454372179  -440.988911728   149.870750323  -0.20E-07*   0.35E-04*   0.95E-05     0.97E-04   0.11E+03   QNRc2DIIS    0.
  13  -224.454372181  -440.988799449   149.870638043  -0.16E-08*   0.96E-05    0.26E-05     0.34E-04   0.11E+03   QNRc2DIIS    0.
  14  -224.454372181  -440.988825020   149.870663613  -0.13E-09    0.81E-06    0.22E-06     0.20E-03   0.11E+03   QNRc2DIIS    0.
 
       Convergence after 14 Macro Iterations
--
 
 *****************************************************************************************************************************
 *                                                                                                                           *
 *                                             SCF/KS-DFT Program, Final results                                             *
 *                                                                                                                           *
 *                                                                                                                           *
 *                                                                                                                           *
 *                                                       Final Results                                                       *
 *                                                                                                                           *
 *****************************************************************************************************************************
 
::    Total SCF energy                               -224.4543721808
      One-electron energy                            -440.9888250201
      Two-electron energy                             149.8706636134
      Nuclear repulsion energy                         66.6637892259
      Kinetic energy (interpolated)                   225.1445999682
      Virial theorem                                    0.9969342912
      Total spin, S(S+1)                                0.0000000000
      Total spin, S                                     0.0000000000
      Max non-diagonal density matrix element           0.0000009155
      Max non-diagonal Fock matrix element              0.0000001583
 
 
      All orbitals with orbital energies smaller than  E(LUMO)+0.5 are printed
 
++    Molecular orbitals:
      -------------------
 
      Title: SCF orbitals

      Molecular orbitals for symmetry species 1: a  
 
          Orbital            1         2         3         4         5         6         7         8         9        10    
          Energy          -20.8941  -20.7393  -20.7393   -1.7178   -1.4627   -1.0695   -0.8330   -0.7976   -0.7623   -0.6024
          Occ. No.          2.0000    2.0000    2.0000    2.0000    2.0000    2.0000    2.0000    2.0000    2.0000    2.0000
 
        1 O1     1s         0.0023   -0.7063    0.7063   -0.0128    0.0124    0.0133   -0.0062   -0.0241    0.0000    0.0074
        2 O1     2s         0.0018    0.0057   -0.0057    0.3431   -0.5595    0.6423   -0.1351   -0.4381    0.0000    0.0822
        3 O1     3s         0.0010    0.0041   -0.0039   -0.0089    0.0209    0.0220   -0.0094   -0.0526    0.0000    0.0156
        4 O1     4s         0.0002    0.0009   -0.0008   -0.0002    0.0040    0.0037   -0.0020   -0.0110    0.0000    0.0035
        5 O1     2px       -0.0003   -0.0008    0.0007   -0.0236    0.0335    0.0663    0.3024   -0.2222   -0.0000   -0.6522
        6 O1     3px       -0.0004   -0.0007    0.0005    0.0093   -0.0050   -0.0115   -0.0208    0.0185    0.0000    0.0028
        7 O1     4px       -0.0002    0.0002   -0.0003    0.0020    0.0006    0.0003   -0.0009    0.0007    0.0000    0.0052
        8 O1     2py       -0.0012   -0.0024    0.0029   -0.1152    0.0866    0.1566   -0.1905   -0.3581    0.0000    0.2568
        9 O1     3py       -0.0006   -0.0024    0.0028    0.0123   -0.0189   -0.0257    0.0167    0.0461    0.0000   -0.0054
       10 O1     4py        0.0003    0.0016   -0.0016    0.0010   -0.0035    0.0008    0.0029    0.0039    0.0000   -0.0023
       11 O1     2pz        0.0000    0.0000    0.0000    0.0000   -0.0000   -0.0000    0.0000   -0.0000    0.4078   -0.0000
       12 O1     3pz        0.0000    0.0000    0.0000    0.0000    0.0000   -0.0000   -0.0000    0.0000   -0.0154    0.0000
       13 O1     4pz       -0.0000   -0.0000   -0.0000    0.0000   -0.0000    0.0000   -0.0000    0.0000   -0.0067    0.0000
       14 O1     3d2-       0.0001    0.0005   -0.0005    0.0073   -0.0079   -0.0079   -0.0159    0.0154    0.0000    0.0098
       15 O1     4d2-       0.0000    0.0003   -0.0003    0.0003   -0.0008   -0.0003   -0.0015    0.0009    0.0000    0.0013
       16 O1     3d1-      -0.0000    0.0000    0.0000    0.0000   -0.0000    0.0000   -0.0000   -0.0000   -0.0315    0.0000
       17 O1     4d1-       0.0000   -0.0000   -0.0000   -0.0000   -0.0000    0.0000   -0.0000   -0.0000   -0.0055   -0.0000
       18 O1     3d0       -0.0002   -0.0005    0.0006   -0.0104    0.0088    0.0062   -0.0061   -0.0146    0.0000    0.0053
       19 O1     4d0       -0.0001   -0.0004    0.0004   -0.0009    0.0008    0.0002   -0.0008   -0.0008    0.0000    0.0009
       20 O1     3d1+       0.0000   -0.0000   -0.0000    0.0000   -0.0000   -0.0000    0.0000    0.0000   -0.0070    0.0000
       21 O1     4d1+      -0.0000    0.0000    0.0000   -0.0000    0.0000    0.0000   -0.0000   -0.0000   -0.0013    0.0000
       22 O1     3d2+      -0.0004   -0.0011    0.0012   -0.0187    0.0137    0.0130   -0.0186   -0.0241    0.0000    0.0142
       23 O1     4d2+      -0.0002   -0.0005    0.0006   -0.0027    0.0017    0.0014   -0.0020   -0.0018    0.0000    0.0020
       24 O1     4f3-       0.0001    0.0002   -0.0001    0.0046   -0.0041   -0.0019    0.0058    0.0047   -0.0000   -0.0047
       25 O1     4f2-       0.0000   -0.0000   -0.0000   -0.0000    0.0000    0.0000    0.0000   -0.0000    0.0026   -0.0000
       26 O1     4f1-       0.0000    0.0002   -0.0002    0.0033   -0.0030   -0.0017    0.0016    0.0038    0.0000   -0.0012
       27 O1     4f0        0.0000    0.0000    0.0000   -0.0000   -0.0000   -0.0000   -0.0000   -0.0000   -0.0037   -0.0000
       28 O1     4f1+      -0.0000    0.0000   -0.0000    0.0007   -0.0006   -0.0005   -0.0004    0.0007    0.0000   -0.0008
       29 O1     4f2+       0.0000    0.0000   -0.0000    0.0000   -0.0000   -0.0000   -0.0000   -0.0000   -0.0066    0.0000
       30 O1     4f3+       0.0000    0.0001   -0.0001    0.0032   -0.0034   -0.0025   -0.0049    0.0051   -0.0000    0.0037
       31 O2     1s         0.9995   -0.0000   -0.0011   -0.0281   -0.0000   -0.0157   -0.0049   -0.0000    0.0000    0.0000
       32 O2     2s        -0.0036    0.0000    0.0118    0.6241    0.0000   -0.6362   -0.0512   -0.0000    0.0000    0.0000
       33 O2     3s        -0.0028    0.0000    0.0068   -0.0688   -0.0000   -0.0202   -0.0081   -0.0000    0.0000   -0.0000
       34 O2     4s        -0.0005    0.0000    0.0011   -0.0127   -0.0000   -0.0044   -0.0034   -0.0000    0.0000    0.0000
       35 O2     2px        0.0002    0.0000    0.0021    0.0581   -0.0000    0.1326    0.7156   -0.0000   -0.0000   -0.0000
       36 O2     3px       -0.0006    0.0000    0.0013   -0.0260   -0.0000   -0.0166   -0.0755    0.0000    0.0000    0.0000
       37 O2     4px        0.0013   -0.0000   -0.0004   -0.0042    0.0000    0.0016   -0.0103    0.0000    0.0000    0.0000
       38 O2     2py        0.0000   -0.0069    0.0000    0.0000   -0.3365   -0.0000    0.0000    0.5493   -0.0000   -0.1344
       39 O2     3py        0.0000   -0.0047    0.0000    0.0000    0.0650    0.0000   -0.0000   -0.0543   -0.0000   -0.0052
       40 O2     4py        0.0000    0.0012   -0.0000   -0.0000   -0.0012   -0.0000   -0.0000   -0.0105    0.0000    0.0009
       41 O2     2pz        0.0000    0.0000    0.0000    0.0000    0.0000   -0.0000    0.0000    0.0000    0.6484   -0.0000
       42 O2     3pz       -0.0000    0.0000   -0.0000    0.0000    0.0000   -0.0000    0.0000   -0.0000   -0.0436   -0.0000
       43 O2     4pz       -0.0000   -0.0000   -0.0000   -0.0000   -0.0000    0.0000    0.0000   -0.0000   -0.0181   -0.0000
       44 O2     3d2-      -0.0000   -0.0009    0.0000    0.0000   -0.0256   -0.0000    0.0000    0.0177   -0.0000   -0.0441
       45 O2     4d2-      -0.0000   -0.0005    0.0000    0.0000   -0.0028    0.0000   -0.0000    0.0016   -0.0000   -0.0073
       46 O2     3d1-       0.0000    0.0000    0.0000    0.0000   -0.0000   -0.0000   -0.0000   -0.0000   -0.0000    0.0000
       47 O2     4d1-       0.0000    0.0000    0.0000    0.0000   -0.0000   -0.0000   -0.0000   -0.0000   -0.0000    0.0000
       48 O2     3d0        0.0001   -0.0000   -0.0011   -0.0147    0.0000   -0.0024   -0.0117    0.0000   -0.0000    0.0000
       49 O2     4d0        0.0003   -0.0000   -0.0006    0.0006    0.0000    0.0004   -0.0010    0.0000   -0.0000    0.0000
       50 O2     3d1+       0.0000   -0.0000   -0.0000    0.0000   -0.0000   -0.0000    0.0000    0.0000    0.0205   -0.0000
       51 O2     4d1+       0.0000    0.0000   -0.0000    0.0000    0.0000   -0.0000    0.0000    0.0000    0.0031   -0.0000
       52 O2     3d2+       0.0006   -0.0000   -0.0017   -0.0223    0.0000   -0.0042    0.0116    0.0000   -0.0000    0.0000
       53 O2     4d2+       0.0003   -0.0000   -0.0008   -0.0013    0.0000   -0.0003    0.0004    0.0000   -0.0000    0.0000
       54 O2     4f3-      -0.0000    0.0001   -0.0000   -0.0000    0.0078    0.0000   -0.0000   -0.0083    0.0000   -0.0054
       55 O2     4f2-      -0.0000    0.0000    0.0000   -0.0000    0.0000   -0.0000    0.0000   -0.0000   -0.0000   -0.0000
       56 O2     4f1-       0.0000    0.0001   -0.0000   -0.0000    0.0054    0.0000   -0.0000   -0.0046    0.0000    0.0010
       57 O2     4f0        0.0000   -0.0000   -0.0000    0.0000    0.0000   -0.0000   -0.0000   -0.0000   -0.0056    0.0000
       58 O2     4f1+       0.0000   -0.0000   -0.0001   -0.0015    0.0000    0.0002   -0.0005    0.0000   -0.0000   -0.0000
       59 O2     4f2+       0.0000   -0.0000   -0.0000    0.0000   -0.0000   -0.0000   -0.0000   -0.0000   -0.0100    0.0000
       60 O2     4f3+       0.0001   -0.0000   -0.0002   -0.0075   -0.0000   -0.0010   -0.0101    0.0000    0.0000    0.0000
       61 O3     1s         0.0023    0.7063    0.7063   -0.0128   -0.0124    0.0133   -0.0062    0.0241   -0.0000   -0.0074
       62 O3     2s         0.0018   -0.0057   -0.0057    0.3431    0.5595    0.6423   -0.1351    0.4381   -0.0000   -0.0822
       63 O3     3s         0.0010   -0.0041   -0.0039   -0.0089   -0.0209    0.0220   -0.0094    0.0526   -0.0000   -0.0156
       64 O3     4s         0.0002   -0.0009   -0.0008   -0.0002   -0.0040    0.0037   -0.0020    0.0110   -0.0000   -0.0035
       65 O3     2px       -0.0003    0.0008    0.0007   -0.0236   -0.0335    0.0663    0.3024    0.2222   -0.0000    0.6522
       66 O3     3px       -0.0004    0.0007    0.0005    0.0093    0.0050   -0.0115   -0.0208   -0.0185   -0.0000   -0.0028
       67 O3     4px       -0.0002   -0.0002   -0.0003    0.0020   -0.0006    0.0003   -0.0009   -0.0007   -0.0000   -0.0052
       68 O3     2py        0.0012   -0.0024   -0.0029    0.1152    0.0866   -0.1566    0.1905   -0.3581    0.0000    0.2568
       69 O3     3py        0.0006   -0.0024   -0.0028   -0.0123   -0.0189    0.0257   -0.0167    0.0461   -0.0000   -0.0054
       70 O3     4py       -0.0003    0.0016    0.0016   -0.0010   -0.0035   -0.0008   -0.0029    0.0039    0.0000   -0.0023
       71 O3     2pz        0.0000    0.0000    0.0000   -0.0000   -0.0000    0.0000    0.0000    0.0000    0.4078    0.0000
       72 O3     3pz       -0.0000    0.0000    0.0000   -0.0000    0.0000    0.0000   -0.0000   -0.0000   -0.0154    0.0000
       73 O3     4pz       -0.0000   -0.0000    0.0000   -0.0000   -0.0000    0.0000   -0.0000    0.0000   -0.0067   -0.0000
       74 O3     3d2-      -0.0001    0.0005    0.0005   -0.0073   -0.0079    0.0079    0.0159    0.0154   -0.0000    0.0098
       75 O3     4d2-      -0.0000    0.0003    0.0003   -0.0003   -0.0008    0.0003    0.0015    0.0009    0.0000    0.0013
       76 O3     3d1-      -0.0000    0.0000    0.0000    0.0000    0.0000   -0.0000    0.0000    0.0000    0.0315   -0.0000
       77 O3     4d1-       0.0000    0.0000    0.0000    0.0000    0.0000    0.0000   -0.0000   -0.0000    0.0055   -0.0000
       78 O3     3d0       -0.0002    0.0005    0.0006   -0.0104   -0.0088    0.0062   -0.0061    0.0146   -0.0000   -0.0053
       79 O3     4d0       -0.0001    0.0004    0.0004   -0.0009   -0.0008    0.0002   -0.0008    0.0008    0.0000   -0.0009
       80 O3     3d1+      -0.0000   -0.0000    0.0000   -0.0000   -0.0000    0.0000    0.0000    0.0000   -0.0070    0.0000
       81 O3     4d1+      -0.0000   -0.0000   -0.0000    0.0000   -0.0000   -0.0000    0.0000    0.0000   -0.0013   -0.0000
       82 O3     3d2+      -0.0004    0.0011    0.0012   -0.0187   -0.0137    0.0130   -0.0186    0.0241    0.0000   -0.0142
       83 O3     4d2+      -0.0002    0.0005    0.0006   -0.0027   -0.0017    0.0014   -0.0020    0.0018    0.0000   -0.0020
       84 O3     4f3-      -0.0001    0.0002    0.0001   -0.0046   -0.0041    0.0019   -0.0058    0.0047    0.0000   -0.0047
       85 O3     4f2-      -0.0000   -0.0000   -0.0000   -0.0000   -0.0000    0.0000   -0.0000    0.0000   -0.0026    0.0000
       86 O3     4f1-      -0.0000    0.0002    0.0002   -0.0033   -0.0030    0.0017   -0.0016    0.0038   -0.0000   -0.0012
       87 O3     4f0        0.0000   -0.0000   -0.0000   -0.0000    0.0000    0.0000   -0.0000    0.0000   -0.0037    0.0000
       88 O3     4f1+      -0.0000   -0.0000   -0.0000    0.0007    0.0006   -0.0005   -0.0004   -0.0007   -0.0000    0.0008
       89 O3     4f2+       0.0000   -0.0000   -0.0000   -0.0000   -0.0000    0.0000   -0.0000   -0.0000   -0.0066   -0.0000
       90 O3     4f3+       0.0000   -0.0001   -0.0001    0.0032    0.0034   -0.0025   -0.0049   -0.0051    0.0000   -0.0037
 
          Orbital           11        12        13        14        15        16        17        18        19        20    
          Energy           -0.5081   -0.4978   -0.0339    0.1594    0.1699    0.2318    0.2348    0.2933    0.3608    0.3704
          Occ. No.          2.0000    2.0000    0.0000    0.0000    0.0000    0.0000    0.0000    0.0000    0.0000    0.0000
 
        1 O1     1s         0.0000    0.0018   -0.0000    0.0769   -0.2193   -0.0527    0.0000    0.0839   -0.0153    0.0000
        2 O1     2s         0.0000   -0.0016   -0.0000    0.6725   -1.5959   -0.3365    0.0000    0.5450   -0.0539    0.0000
        3 O1     3s         0.0000    0.0122   -0.0000    0.2328   -0.9477   -0.2715    0.0000    0.5554   -0.0214    0.0000
        4 O1     4s         0.0000    0.0043   -0.0000    0.0340   -0.2143   -0.0653    0.0000    0.1483    0.0002    0.0000
        5 O1     2px       -0.0000    0.6672   -0.0000   -0.0326    0.2428   -0.0123    0.0000   -0.1208   -0.1800    0.0000
        6 O1     3px       -0.0000    0.0299    0.0000   -0.0476    0.2574    0.3982   -0.0000    0.0931   -0.8305    0.0000
        7 O1     4px       -0.0000   -0.0016    0.0000   -0.0055    0.0348    0.1827   -0.0000    0.0808   -0.3303    0.0000
        8 O1     2py       -0.0000    0.0599    0.0000   -0.9534    0.6283    0.1098   -0.0000   -0.3295   -0.1622    0.0000
        9 O1     3py       -0.0000   -0.0119    0.0000   -0.5243    0.7817    0.2500   -0.0000   -0.9464   -0.1104    0.0000
       10 O1     4py       -0.0000   -0.0028    0.0000   -0.0727    0.1041    0.0176   -0.0000   -0.2250   -0.0216   -0.0000
       11 O1     2pz       -0.6960   -0.0000    0.6675    0.0000   -0.0000   -0.0000   -0.1241    0.0000   -0.0000   -0.1524
       12 O1     3pz       -0.0270    0.0000    0.1704    0.0000   -0.0000    0.0000    0.3702    0.0000   -0.0000   -0.8829
       13 O1     4pz        0.0071   -0.0000    0.0273    0.0000   -0.0000    0.0000    0.2029   -0.0000   -0.0000   -0.3551
       14 O1     3d2-      -0.0000   -0.0029   -0.0000    0.0234   -0.0442   -0.0120    0.0000    0.0195    0.0092   -0.0000
       15 O1     4d2-       0.0000   -0.0005   -0.0000    0.0121   -0.0300   -0.0115    0.0000    0.0138    0.0155   -0.0000
       16 O1     3d1-       0.0252    0.0000    0.0129   -0.0000    0.0000    0.0000    0.0073    0.0000    0.0000    0.0085
       17 O1     4d1-       0.0059    0.0000    0.0013   -0.0000    0.0000   -0.0000   -0.0006    0.0000    0.0000    0.0133
       18 O1     3d0       -0.0000    0.0038   -0.0000   -0.0185    0.0519    0.0283   -0.0000   -0.0530   -0.0065   -0.0000
       19 O1     4d0       -0.0000    0.0002    0.0000   -0.0135    0.0327    0.0178   -0.0000   -0.0365   -0.0083    0.0000
       20 O1     3d1+       0.0050   -0.0000    0.0038    0.0000   -0.0000    0.0000    0.0027    0.0000    0.0000    0.0099
       21 O1     4d1+       0.0011   -0.0000    0.0003    0.0000    0.0000    0.0000    0.0004    0.0000    0.0000    0.0081
       22 O1     3d2+      -0.0000    0.0076    0.0000   -0.0195    0.0787    0.0516   -0.0000   -0.0980    0.0046   -0.0000
       23 O1     4d2+      -0.0000   -0.0001    0.0000   -0.0174    0.0477    0.0302   -0.0000   -0.0679   -0.0007   -0.0000
       24 O1     4f3-       0.0000   -0.0012   -0.0000    0.0035   -0.0070   -0.0006    0.0000    0.0105   -0.0016    0.0000
       25 O1     4f2-      -0.0020    0.0000   -0.0003   -0.0000   -0.0000    0.0000    0.0008   -0.0000   -0.0000   -0.0046
       26 O1     4f1-      -0.0000   -0.0012   -0.0000    0.0028   -0.0051   -0.0032    0.0000    0.0102    0.0042   -0.0000
       27 O1     4f0        0.0018    0.0000    0.0015   -0.0000    0.0000   -0.0000   -0.0019   -0.0000    0.0000    0.0061
       28 O1     4f1+       0.0000    0.0010   -0.0000    0.0011   -0.0006   -0.0017    0.0000    0.0015    0.0035   -0.0000
       29 O1     4f2+       0.0052    0.0000   -0.0004   -0.0000    0.0000   -0.0000   -0.0018   -0.0000    0.0000    0.0056
       30 O1     4f3+       0.0000   -0.0028   -0.0000    0.0040   -0.0037   -0.0045    0.0000    0.0053    0.0091   -0.0000
       31 O2     1s        -0.0000    0.0216    0.0000   -0.2269   -0.0000    0.1176   -0.0000   -0.2720   -0.0000   -0.0000
       32 O2     2s        -0.0000    0.2559    0.0000   -1.8190   -0.0000    0.7339   -0.0000   -1.6719   -0.0000   -0.0000
       33 O2     3s        -0.0000    0.0560    0.0000   -0.8448   -0.0000    0.4998   -0.0000   -1.0208   -0.0000   -0.0000
       34 O2     4s        -0.0000    0.0136    0.0000   -0.1868   -0.0000    0.1006   -0.0000   -0.1864   -0.0000   -0.0000
       35 O2     2px        0.0000   -0.6279    0.0000   -0.5228   -0.0000   -0.0437    0.0000   -0.1475    0.0000    0.0000
       36 O2     3px       -0.0000   -0.0276   -0.0000   -0.2320   -0.0000    0.3802   -0.0000   -0.3008    0.0000    0.0000
       37 O2     4px        0.0000   -0.0033   -0.0000   -0.0205   -0.0000    0.1694   -0.0000    0.0001    0.0000    0.0000
       38 O2     2py       -0.0000   -0.0000    0.0000   -0.0000    1.5482    0.0000    0.0000   -0.0000   -0.0546    0.0000
       39 O2     3py       -0.0000    0.0000    0.0000   -0.0000    1.5865   -0.0000    0.0000    0.0000    0.2834   -0.0000
       40 O2     4py        0.0000   -0.0000    0.0000   -0.0000    0.1610   -0.0000    0.0000    0.0000    0.1394   -0.0000
       41 O2     2pz       -0.0000   -0.0000   -0.8970   -0.0000    0.0000   -0.0000   -0.0355   -0.0000    0.0000   -0.0000
       42 O2     3pz       -0.0000   -0.0000   -0.2008    0.0000   -0.0000    0.0000    0.2963   -0.0000    0.0000    0.0000
       43 O2     4pz        0.0000   -0.0000   -0.0209    0.0000   -0.0000    0.0000    0.1811   -0.0000    0.0000    0.0000
       44 O2     3d2-       0.0000    0.0000    0.0000   -0.0000    0.0922   -0.0000    0.0000   -0.0000    0.0964   -0.0000
       45 O2     4d2-       0.0000    0.0000    0.0000   -0.0000    0.0566   -0.0000    0.0000   -0.0000    0.0652   -0.0000
       46 O2     3d1-      -0.0619   -0.0000    0.0000   -0.0000    0.0000   -0.0000   -0.0000   -0.0000    0.0000    0.1144
       47 O2     4d1-      -0.0143   -0.0000    0.0000   -0.0000    0.0000   -0.0000   -0.0000   -0.0000    0.0000    0.0691
       48 O2     3d0       -0.0000    0.0174   -0.0000   -0.0050   -0.0000   -0.0591    0.0000    0.1233    0.0000   -0.0000
       49 O2     4d0       -0.0000    0.0020    0.0000    0.0090    0.0000   -0.0302    0.0000    0.0556    0.0000   -0.0000
       50 O2     3d1+      -0.0000   -0.0000   -0.0027    0.0000    0.0000   -0.0000   -0.0160    0.0000    0.0000    0.0000
       51 O2     4d1+      -0.0000   -0.0000   -0.0002    0.0000    0.0000   -0.0000   -0.0066    0.0000    0.0000    0.0000
       52 O2     3d2+       0.0000    0.0300   -0.0000   -0.0128   -0.0000   -0.1082    0.0000    0.1456    0.0000   -0.0000
       53 O2     4d2+       0.0000    0.0054   -0.0000    0.0137    0.0000   -0.0499    0.0000    0.0543    0.0000   -0.0000
       54 O2     4f3-       0.0000    0.0000   -0.0000    0.0000   -0.0127   -0.0000   -0.0000   -0.0000   -0.0019    0.0000
       55 O2     4f2-      -0.0053   -0.0000    0.0000    0.0000    0.0000   -0.0000    0.0000    0.0000    0.0000    0.0042
       56 O2     4f1-      -0.0000   -0.0000   -0.0000    0.0000   -0.0108   -0.0000   -0.0000   -0.0000   -0.0069    0.0000
       57 O2     4f0        0.0000   -0.0000   -0.0021    0.0000    0.0000   -0.0000   -0.0014    0.0000   -0.0000   -0.0000
       58 O2     4f1+       0.0000   -0.0015    0.0000   -0.0010   -0.0000   -0.0026    0.0000    0.0038    0.0000   -0.0000
       59 O2     4f2+       0.0000   -0.0000    0.0015    0.0000    0.0000   -0.0000   -0.0020    0.0000   -0.0000    0.0000
       60 O2     4f3+       0.0000    0.0024   -0.0000    0.0006   -0.0000   -0.0073    0.0000    0.0084    0.0000   -0.0000
       61 O3     1s         0.0000    0.0018    0.0000    0.0769    0.2193   -0.0527    0.0000    0.0839    0.0153   -0.0000
       62 O3     2s        -0.0000   -0.0016    0.0000    0.6725    1.5959   -0.3365    0.0000    0.5450    0.0539   -0.0000
       63 O3     3s         0.0000    0.0122    0.0000    0.2328    0.9477   -0.2715    0.0000    0.5554    0.0214   -0.0000
       64 O3     4s        -0.0000    0.0043    0.0000    0.0340    0.2143   -0.0653    0.0000    0.1483   -0.0002   -0.0000
       65 O3     2px       -0.0000    0.6672   -0.0000   -0.0326   -0.2428   -0.0123   -0.0000   -0.1208    0.1800   -0.0000
       66 O3     3px       -0.0000    0.0299   -0.0000   -0.0476   -0.2574    0.3982   -0.0000    0.0931    0.8305   -0.0000
       67 O3     4px        0.0000   -0.0016   -0.0000   -0.0055   -0.0348    0.1827   -0.0000    0.0808    0.3303   -0.0000
       68 O3     2py        0.0000   -0.0599    0.0000    0.9534    0.6283   -0.1098    0.0000    0.3295   -0.1622    0.0000
       69 O3     3py        0.0000    0.0119    0.0000    0.5243    0.7817   -0.2500    0.0000    0.9464   -0.1104    0.0000
       70 O3     4py       -0.0000    0.0028   -0.0000    0.0727    0.1041   -0.0176    0.0000    0.2250   -0.0216    0.0000
       71 O3     2pz        0.6960    0.0000    0.6675   -0.0000    0.0000   -0.0000   -0.1241    0.0000    0.0000    0.1524
       72 O3     3pz        0.0270    0.0000    0.1704    0.0000   -0.0000    0.0000    0.3702   -0.0000    0.0000    0.8829
       73 O3     4pz       -0.0071   -0.0000    0.0273    0.0000   -0.0000    0.0000    0.2029   -0.0000    0.0000    0.3551
       74 O3     3d2-      -0.0000    0.0029    0.0000   -0.0234   -0.0442    0.0120   -0.0000   -0.0195    0.0092   -0.0000
       75 O3     4d2-      -0.0000    0.0005    0.0000   -0.0121   -0.0300    0.0115   -0.0000   -0.0138    0.0155   -0.0000
       76 O3     3d1-       0.0252    0.0000   -0.0129   -0.0000    0.0000   -0.0000   -0.0073   -0.0000    0.0000    0.0085
       77 O3     4d1-       0.0059    0.0000   -0.0013   -0.0000    0.0000    0.0000    0.0006   -0.0000    0.0000    0.0133
       78 O3     3d0       -0.0000    0.0038   -0.0000   -0.0185   -0.0519    0.0283   -0.0000   -0.0530    0.0065   -0.0000
       79 O3     4d0       -0.0000    0.0002    0.0000   -0.0135   -0.0327    0.0178   -0.0000   -0.0365    0.0083   -0.0000
       80 O3     3d1+      -0.0050   -0.0000    0.0038    0.0000   -0.0000    0.0000    0.0027    0.0000   -0.0000   -0.0099
       81 O3     4d1+      -0.0011   -0.0000    0.0003    0.0000   -0.0000    0.0000    0.0004    0.0000   -0.0000   -0.0081
       82 O3     3d2+      -0.0000    0.0076   -0.0000   -0.0195   -0.0787    0.0516   -0.0000   -0.0980   -0.0046    0.0000
       83 O3     4d2+      -0.0000   -0.0001   -0.0000   -0.0174   -0.0477    0.0302   -0.0000   -0.0679    0.0007   -0.0000
       84 O3     4f3-       0.0000    0.0012   -0.0000   -0.0035   -0.0070    0.0006   -0.0000   -0.0105   -0.0016    0.0000
       85 O3     4f2-      -0.0020   -0.0000    0.0003   -0.0000   -0.0000   -0.0000   -0.0008    0.0000   -0.0000   -0.0046
       86 O3     4f1-      -0.0000    0.0012   -0.0000   -0.0028   -0.0051    0.0032   -0.0000   -0.0102    0.0042   -0.0000
       87 O3     4f0       -0.0018    0.0000    0.0015    0.0000    0.0000   -0.0000   -0.0019    0.0000   -0.0000   -0.0061
       88 O3     4f1+      -0.0000    0.0010   -0.0000    0.0011    0.0006   -0.0017    0.0000    0.0015   -0.0035    0.0000
       89 O3     4f2+      -0.0052   -0.0000   -0.0004    0.0000    0.0000   -0.0000   -0.0018    0.0000   -0.0000   -0.0056
       90 O3     4f3+       0.0000   -0.0028    0.0000    0.0040    0.0037   -0.0045    0.0000    0.0053   -0.0091    0.0000
 
          Orbital           21    
          Energy            0.4517
          Occ. No.          0.0000
 
        1 O1     1s        -0.0532
        2 O1     2s        -0.3113
        3 O1     3s         0.1903
        4 O1     4s         0.1360
        5 O1     2px        0.1462
        6 O1     3px        0.3124
        7 O1     4px        0.0708
        8 O1     2py        0.0028
        9 O1     3py        0.4446
       10 O1     4py        0.0960
       11 O1     2pz       -0.0000
       12 O1     3pz       -0.0000
       13 O1     4pz       -0.0000
       14 O1     3d2-      -0.0708
       15 O1     4d2-      -0.0444
       16 O1     3d1-       0.0000
       17 O1     4d1-       0.0000
       18 O1     3d0        0.0609
       19 O1     4d0        0.0358
       20 O1     3d1+      -0.0000
       21 O1     4d1+      -0.0000
       22 O1     3d2+       0.0831
       23 O1     4d2+       0.0465
       24 O1     4f3-      -0.0020
       25 O1     4f2-      -0.0000
       26 O1     4f1-      -0.0038
       27 O1     4f0       -0.0000
       28 O1     4f1+      -0.0017
       29 O1     4f2+       0.0000
       30 O1     4f3+      -0.0054
       31 O2     1s         0.0924
       32 O2     2s         0.5617
       33 O2     3s         0.9160
       34 O2     4s         0.2790
       35 O2     2px       -0.1848
       36 O2     3px       -0.4168
       37 O2     4px       -0.1564
       38 O2     2py       -0.0000
       39 O2     3py       -0.0000
       40 O2     4py       -0.0000
       41 O2     2pz       -0.0000
       42 O2     3pz       -0.0000
       43 O2     4pz       -0.0000
       44 O2     3d2-      -0.0000
       45 O2     4d2-      -0.0000
       46 O2     3d1-       0.0000
       47 O2     4d1-       0.0000
       48 O2     3d0       -0.0316
       49 O2     4d0       -0.0095
       50 O2     3d1+      -0.0000
       51 O2     4d1+      -0.0000
       52 O2     3d2+      -0.0723
       53 O2     4d2+      -0.0336
       54 O2     4f3-       0.0000
       55 O2     4f2-       0.0000
       56 O2     4f1-       0.0000
       57 O2     4f0        0.0000
       58 O2     4f1+      -0.0009
       59 O2     4f2+       0.0000
       60 O2     4f3+      -0.0048
       61 O3     1s        -0.0532
       62 O3     2s        -0.3113
       63 O3     3s         0.1903
       64 O3     4s         0.1360
       65 O3     2px        0.1462
       66 O3     3px        0.3124
       67 O3     4px        0.0708
       68 O3     2py       -0.0028
       69 O3     3py       -0.4446
       70 O3     4py       -0.0960
       71 O3     2pz        0.0000
       72 O3     3pz        0.0000
       73 O3     4pz        0.0000
       74 O3     3d2-       0.0708
       75 O3     4d2-       0.0444
       76 O3     3d1-       0.0000
       77 O3     4d1-       0.0000
       78 O3     3d0        0.0609
       79 O3     4d0        0.0358
       80 O3     3d1+      -0.0000
       81 O3     4d1+      -0.0000
       82 O3     3d2+       0.0831
       83 O3     4d2+       0.0465
       84 O3     4f3-       0.0020
       85 O3     4f2-      -0.0000
       86 O3     4f1-       0.0038
       87 O3     4f0       -0.0000
       88 O3     4f1+      -0.0017
       89 O3     4f2+      -0.0000
       90 O3     4f3+      -0.0054
--
 
 
++    Molecular charges:
      ------------------
 
      Mulliken charges per centre and basis function type
      ---------------------------------------------------
 
                O1      O2      O3    
      1s       1.9977  1.9989  1.9977
      2s       1.9548  1.6545  1.9548
      2px      1.9606  1.7687  1.9606
      2pz      1.4122  1.0839  1.4122
      2py      0.8079  1.0378  0.8079
      3s      -0.0061 -0.0339 -0.0061
      3px     -0.0152 -0.0343 -0.0152
      3pz     -0.0074 -0.0148 -0.0074
      3py      0.0000  0.0058  0.0000
      4s       0.0036  0.0009  0.0036
      3d2+     0.0206  0.0287  0.0206
      3d1+     0.0008  0.0032  0.0008
      3d0      0.0059  0.0065  0.0059
      3d1-     0.0142  0.0537  0.0142
      3d2-     0.0102  0.0382  0.0102
      4px      0.0005  0.0011  0.0005
      4pz      0.0012  0.0019  0.0012
      4py      0.0025  0.0043  0.0025
      4d2+     0.0014  0.0031  0.0014
      4d1+     0.0001  0.0004  0.0001
      4d0      0.0002 -0.0003  0.0002
      4d1-     0.0021  0.0135  0.0021
      4d2-     0.0006  0.0059  0.0006
      4f3+     0.0022  0.0033  0.0022
      4f2+     0.0017  0.0032  0.0017
      4f1+     0.0002  0.0003  0.0002
      4f0      0.0008  0.0015  0.0008
      4f1-     0.0012  0.0013  0.0012
      4f2-     0.0004  0.0014  0.0004
      4f3-     0.0030  0.0052  0.0030
      Total    8.1779  7.6442  8.1779
 
      N-E     -0.1779  0.3558 -0.1779
 
      Total electronic charge=   24.000000
 
      Total            charge=   -0.000000
--
 
 
  Input file to MOLDEN was generated!
 
 
++    Static properties:
      ------------------
 
 
      LoProp Charges per center
 

                   O1       O2       O3    
      Nuclear      8.0000   8.0000   8.0000
      Electronic  -8.1862  -7.6276  -8.1862
 
      Total       -0.1862   0.3724  -0.1862
--
 
 
++    Natural Bond Order analysis
      ---------------------------
      Based on LoProp computed density
      -------------------------------------------------------------------------------------
      Atom A       Atom B       Bond Order | Atom A       Atom B       Bond Order
        O1           O2             1.996  |   O2           O3             1.996
      -------------------------------------------------------------------------------------
      NBO located     11.999 core electrons.
      NBO located      3.965 lone pair electrons.
      NBO located      7.982 electrons involved in    2 bonds.
      The remaining    0.054 electrons are to be considered as diffuse
--
 
 
++    Molecular properties:
      ---------------------
 
      Charge (e):
                      =   -0.0000
      Dipole Moment (Debye):
      Origin of the operator (Ang)=    0.0000    0.0000    0.0000
                   X= -1.7166E-01               Y=  6.1802E-11               Z= -4.6059E-14           Total=  1.7166E-01
      Quadrupole Moment (Debye*Ang):
      Origin of the operator (Ang)=    0.2079    0.0000    0.0000
                  XX= -1.6221E+01              XY=  9.9421E-12              XZ= -1.9375E-13              YY= -1.6930E+01
                  YZ= -2.0060E-13              ZZ= -1.4915E+01
      In traceless form (Debye*Ang)
                  XX= -2.9879E-01              XY=  1.4913E-11              XZ= -2.9063E-13              YY= -1.3619E+00
                  YZ= -3.0090E-13              ZZ=  1.6607E+00
--
 
 
  Input file to MOLDEN was generated!
 
 ###############################################################################
 ###############################################################################
 ###                                                                         ###
 ###                                                                         ###
 ###    RunFile label nBas                                                   ###
 ###    was used       78 times                                              ###
 ###                                                                         ###
 ###                                                                         ###
 ###############################################################################
 ###############################################################################
--- Stop Module: scf at Thu Jan  2 03:27:12 2025 /rc=_RC_ALL_IS_WELL_ ---
*** files: ozone_151.75.LprOrb ozone_151.75.LoProp.molden ozone_151.75.scf.molden ozone_151.75.ScfOrb ozone_151.75.scf.h5 xmldump
    saved to directory /home/grierjones/DDCASPT2/ozone/ANO-RCC-VTZP/ozone_151.75

>>> COPY /tmp/ozone_151.75/ozone_151.75.scf.h5 /home/grierjones/DDCASPT2/ozone/ANO-RCC-VTZP/ozone_151.75/

*** symbolic link created: INPORB -> ozone_151.75.ScfOrb
--- Start Module: rasscf at Thu Jan  2 03:27:12 2025 ---
 
()()()()()()()()()()()()()()()()()()()()()()()()()()()()()()()()()()()()()()()()()()()()()()()()()()

                                              &RASSCF

                                   only a single process is used
                       available to each process: 2.0 GB of memory, 1 thread?
()()()()()()()()()()()()()()()()()()()()()()()()()()()()()()()()()()()()()()()()()()()()()()()()()()
 
 
 *************** WARNING ****************
 ###############################################################################
 ###############################################################################
 ###                                                                         ###
 ###                                                                         ###
 ###    Too many macro-iterations.                                           ###
 ###                                                                         ###
 ###                                                                         ###
 ###############################################################################
 ###############################################################################
 Too many macro-iterations requested.
 Reset to maximum, new MAXIT=     200
 ****************************************
 
 *************** WARNING ****************
 ###############################################################################
 ###############################################################################
 ###                                                                         ###
 ###                                                                         ###
 ###    Too many SX-iterations.                                              ###
 ###                                                                         ###
 ###                                                                         ###
 ###############################################################################
 ###############################################################################
 Too many SX-iterations requested.
 Reset to maximum, new ITMAX=     100
 ****************************************
 
      Header of the ONEINT file:
      --------------------------
      
      Integrals generated by seward 4.2.0  , Thu Jan  2 03:27:08 2025
 
 
      OrdInt status: non-squared
 
 
      Cartesian coordinates in Angstrom:
      -----------------------------------------------------
      No.  Label        X            Y            Z        
      -----------------------------------------------------
       1   O1         0.31188100   1.23936000   0.00000000
       2   O2         0.00000000   0.00000000   0.00000000
       3   O3         0.31188100  -1.23936000   0.00000000
      -----------------------------------------------------
      Nuclear repulsion energy =   66.66378923
 
++    Wave function specifications:
      -----------------------------
 
      Number of closed shell electrons          20
      Number of electrons in active shells       4
      Max number of holes in RAS1 space          0
      Max nr of electrons in RAS3 space          0
      Number of inactive orbitals               10
      Number of active orbitals                  3
      Number of secondary orbitals              77
      Spin quantum number                      0.0
      State symmetry                             1
--
 
++    Orbital specifications:
      -----------------------
 
      Symmetry species                           1
                                                 a
      Frozen orbitals                            0
      Inactive orbitals                         10
      Active orbitals                            3
      RAS1 orbitals                              0
      RAS2 orbitals                              3
      RAS3 orbitals                              0
      Secondary orbitals                        77
      Deleted orbitals                           0
      Number of basis functions                 90
--
 
++    CI expansion specifications:
      ----------------------------
 
      Number of CSFs                             6
      Number of determinants                     6
      Number of root(s) required                 1
      Root chosen for geometry opt.              1
      CI root used                               1
         
      highest root included in the CI            1
      max. size of the explicit Hamiltonian      6
--
 
++    Optimization specifications:
      ----------------------------
 
      RASSCF algorithm: Conventional
      Maximum number of macro iterations       200
      Maximum number of SX iterations          100
      Threshold for RASSCF energy            0.100E-07
      Threshold for max MO rotation          0.100E+00
      Threshold for max BLB element          0.100E-03
      Level shift parameter                  0.500E+00
      Make Quasi-Newton update
--
 
      The MO-coefficients are taken from the file:
      /home/grierjones/DDCASPT2/ozone/ANO-RCC-VTZP/ozone_151.50/ozone_151.50.RasOrb                                                   
      Title: RASSCF average (pseudo-natural) orbitals                                      
 
      Total molecular charge    0.00
 
      ************************************************************************************************************************
      *                                                                                                                      *
      *                                            Wave function control section                                             *
      *                                                                                                                      *
      ************************************************************************************************************************
 
 
                                         RASSCF iterations: Energy and convergence statistics
                                         ----------------------------------------------------
 
      Iter CI   SX   CI       RASSCF       Energy    max ROT     max BLB   max BLB  Level Ln srch  Step   QN   Walltime
          iter iter root      energy       change     param      element    value   shift minimum  type update hh:mm:ss
 Nr of preliminary CI iterations:   1
        1   1    3    1  -224.53528984    0.00E+00   0.55E-03    7  14 1 -0.13E-02*  0.19   0.00    SX    NO    0:00:00
        2   1    3    1  -224.53529506   -0.52E-05*  0.32E-03    7  14 1 -0.73E-03*  0.19   0.00    SX    NO    0:00:00
        3   1    3    1  -224.53529620   -0.11E-05*  0.21E-03    7  14 1 -0.49E-03*  0.19   0.00    SX    NO    0:00:00
        4   1    3    1  -224.53529659   -0.39E-06*  0.11E-03    7  14 1 -0.24E-03*  0.19   0.00    SX    NO    0:00:00
        5   1    3    1  -224.53529670   -0.11E-06*  0.31E-03    7  14 1 -0.19E-03*  0.19   2.13    QN   YES    0:00:00
        6   1    3    1  -224.53529676   -0.52E-07* -0.14E-03    7  14 1  0.18E-03*  0.19   0.64    QN   YES    0:00:00
        7   1    3    1  -224.53529678   -0.26E-07*  0.24E-04    8  25 1  0.94E-04   0.19   0.63    QN   YES    0:00:00
        8   1    3    1  -224.53529679   -0.53E-08  -0.48E-05    7  14 1  0.85E-05   0.19   0.78    QN   YES    0:00:00
      Convergence after  8 iterations
 
  Dmat in MO in SXCTL bf call to SXHAM                                                                                    
  mat. size =     3x    3
 
        1.9886251222323703
        0.0000000000001489      1.7172241707821874
       -0.0011688104251510     -0.0000000000002159      0.2941507069854419
        9   1    3    1  -224.53529679   -0.30E-11  -0.48E-05    8  25 1  0.19E-04   0.19   0.78    QN   YES    0:00:00
 
      ************************************************************************************************************************
                                                      Wave function printout:
                       occupation of active orbitals, and spin coupling of open shells (u,d: Spin up or down)
      ************************************************************************************************************************
 
      Note: transformation to natural orbitals
      has been made, which may change the order of the CSFs.
 
      printout of CI-coefficients larger than  0.05 for root  1
      energy=    -224.535297
      conf/sym  111     Coeff  Weight
             1  220  -0.92354 0.85293
             3  202   0.37602 0.14139
             6  022   0.07541 0.00569
 
      Natural orbitals and occupation numbers for root  1
      sym 1:   1.988626   1.717224   0.294150
 
      ************************************************************************************************************************
      *                                                                                                                      *
      *                                                    Final results                                                     *
      *                                                                                                                      *
      ************************************************************************************************************************
 
 
++    Wave function specifications:
      -----------------------------
 
      Number of closed shell electrons          20
      Number of electrons in active shells       4
      Max number of holes in RAS1 space          0
      Max nr of electrons in RAS3 space          0
      Number of inactive orbitals               10
      Number of active orbitals                  3
      Number of secondary orbitals              77
      Spin quantum number                      0.0
      State symmetry                             1
--
 
++    Orbital specifications:
      -----------------------
 
      Symmetry species                           1
                                                 a
      Frozen orbitals                            0
      Inactive orbitals                         10
      Active orbitals                            3
      RAS1 orbitals                              0
      RAS2 orbitals                              3
      RAS3 orbitals                              0
      Secondary orbitals                        77
      Deleted orbitals                           0
      Number of basis functions                 90
--
 
++    CI expansion specifications:
      ----------------------------
 
      Number of CSFs                             6
      Number of determinants                     6
      Number of root(s) required                 1
      CI root used                               1
      highest root included in the CI            1
      Root passed to geometry opt.               1
--
 
++    Final optimization conditions:
      ------------------------------
 
      Average CI energy                            -224.53529679
      RASSCF energy for state  1                   -224.53529679
      Super-CI energy                                -0.00000000
      RASSCF energy change                           -0.00000000
      Max change in MO coefficients               0.482E-05
      Max non-diagonal density matrix element    -0.484E-05
      Maximum BLB matrix element                  0.188E-04
      (orbital pair   8,  25 in symmetry   1)
      Norm of electronic gradient            0.500E-04
--
 
 
      Final state energy(ies):
      ------------------------
 
::    RASSCF root number  1 Total energy:   -224.53529679
 
++    Molecular orbitals:
      -------------------
 
      Pseudonatural active orbitals and approximate occupation numbers
 
 
 
 
      Molecular orbitals for symmetry species 1: a  
 
 
      Orbital                1         2         3         4         5         6         7         8         9        10
      Energy          -20.8011  -20.7380  -20.7380   -1.6846   -1.4462   -1.0572   -0.7945   -0.7848   -0.6025   -0.4780
      Occ. No.          2.0000    2.0000    2.0000    2.0000    2.0000    2.0000    2.0000    2.0000    2.0000    2.0000
 
    1 O1     1s         0.0051   -0.7063    0.7063   -0.0128    0.0113    0.0144   -0.0051    0.0229    0.0076    0.0006
    2 O1     2s         0.0024    0.0055   -0.0055    0.3614   -0.5765    0.6368   -0.1036    0.4060    0.0846   -0.0177
    3 O1     3s         0.0013    0.0040   -0.0039   -0.0110    0.0202    0.0234   -0.0069    0.0500    0.0156    0.0126
    4 O1     4s         0.0002    0.0008   -0.0007   -0.0008    0.0041    0.0037   -0.0016    0.0105    0.0036    0.0050
    5 O1     2px       -0.0004   -0.0007    0.0007   -0.0232    0.0323    0.0667    0.3593    0.2409   -0.6480    0.6420
    6 O1     3px       -0.0005   -0.0007    0.0004    0.0098   -0.0048   -0.0116   -0.0227   -0.0184    0.0033    0.0357
    7 O1     4px       -0.0002    0.0002   -0.0003    0.0019    0.0007    0.0000   -0.0023   -0.0011    0.0056   -0.0005
    8 O1     2py       -0.0016   -0.0024    0.0028   -0.1170    0.0839    0.1774   -0.1977    0.3806    0.2679    0.1036
    9 O1     3py       -0.0008   -0.0023    0.0027    0.0135   -0.0184   -0.0274    0.0141   -0.0443   -0.0049   -0.0117
   10 O1     4py        0.0004    0.0016   -0.0016    0.0008   -0.0036    0.0005    0.0038   -0.0048   -0.0027   -0.0041
   11 O1     2pz        0.0000    0.0000    0.0000    0.0000   -0.0000   -0.0000   -0.0000   -0.0000    0.0000   -0.0000
   12 O1     3pz        0.0000    0.0000   -0.0000    0.0000   -0.0000   -0.0000   -0.0000   -0.0000   -0.0000   -0.0000
   13 O1     4pz        0.0000   -0.0000    0.0000    0.0000   -0.0000    0.0000   -0.0000    0.0000    0.0000   -0.0000
   14 O1     3d2-       0.0001    0.0005   -0.0005    0.0067   -0.0072   -0.0074   -0.0167   -0.0148    0.0089    0.0005
   15 O1     4d2-       0.0000    0.0003   -0.0003    0.0001   -0.0007   -0.0003   -0.0016   -0.0008    0.0009    0.0004
   16 O1     3d1-      -0.0000   -0.0000    0.0000   -0.0000    0.0000    0.0000   -0.0000    0.0000   -0.0000   -0.0000
   17 O1     4d1-      -0.0000   -0.0000    0.0000   -0.0000    0.0000    0.0000   -0.0000    0.0000   -0.0000    0.0000
   18 O1     3d0       -0.0002   -0.0005    0.0006   -0.0112    0.0094    0.0065   -0.0060    0.0146    0.0060    0.0040
   19 O1     4d0       -0.0001   -0.0004    0.0004   -0.0011    0.0011   -0.0000   -0.0009    0.0007    0.0011    0.0002
   20 O1     3d1+      -0.0000   -0.0000    0.0000   -0.0000    0.0000   -0.0000    0.0000   -0.0000    0.0000    0.0000
   21 O1     4d1+      -0.0000    0.0000   -0.0000    0.0000   -0.0000    0.0000   -0.0000   -0.0000    0.0000   -0.0000
   22 O1     3d2+      -0.0005   -0.0011    0.0012   -0.0185    0.0131    0.0142   -0.0177    0.0244    0.0141    0.0098
   23 O1     4d2+      -0.0002   -0.0005    0.0006   -0.0026    0.0016    0.0015   -0.0020    0.0020    0.0018    0.0003
   24 O1     4f3-       0.0001    0.0002   -0.0001    0.0045   -0.0040   -0.0022    0.0055   -0.0047   -0.0045   -0.0020
   25 O1     4f2-      -0.0000    0.0000   -0.0000   -0.0000   -0.0000    0.0000    0.0000    0.0000    0.0000    0.0000
   26 O1     4f1-       0.0000    0.0002   -0.0002    0.0034   -0.0030   -0.0015    0.0013   -0.0033   -0.0011   -0.0011
   27 O1     4f0       -0.0000   -0.0000    0.0000   -0.0000    0.0000   -0.0000   -0.0000    0.0000   -0.0000    0.0000
   28 O1     4f1+      -0.0000    0.0000   -0.0000    0.0007   -0.0006   -0.0004   -0.0001   -0.0005   -0.0011    0.0014
   29 O1     4f2+      -0.0000   -0.0000    0.0000    0.0000   -0.0000    0.0000    0.0000    0.0000    0.0000    0.0000
   30 O1     4f3+       0.0000    0.0001   -0.0001    0.0030   -0.0031   -0.0023   -0.0051   -0.0049    0.0034   -0.0020
   31 O2     1s         0.9993   -0.0000   -0.0049   -0.0288   -0.0000   -0.0136   -0.0061    0.0000    0.0000    0.0262
   32 O2     2s        -0.0045    0.0000    0.0115    0.6012    0.0000   -0.6406   -0.0775    0.0000    0.0000    0.3164
   33 O2     3s        -0.0036    0.0000    0.0066   -0.0602   -0.0000   -0.0268   -0.0101    0.0000    0.0000    0.0710
   34 O2     4s        -0.0006    0.0000    0.0010   -0.0121   -0.0000   -0.0048   -0.0039    0.0000    0.0000    0.0169
   35 O2     2px        0.0001    0.0000    0.0020    0.0597    0.0000    0.0973    0.6517    0.0000   -0.0000   -0.6768
   36 O2     3px       -0.0007    0.0000    0.0013   -0.0255   -0.0000   -0.0108   -0.0598   -0.0000    0.0000   -0.0428
   37 O2     4px        0.0015   -0.0000   -0.0004   -0.0051    0.0000    0.0022   -0.0114   -0.0000    0.0000   -0.0030
   38 O2     2py        0.0000   -0.0068    0.0000    0.0000   -0.3073   -0.0000    0.0000   -0.5183   -0.1375    0.0000
   39 O2     3py        0.0000   -0.0046    0.0000    0.0000    0.0616    0.0000   -0.0000    0.0499   -0.0080    0.0000
   40 O2     4py        0.0000    0.0012   -0.0000   -0.0000   -0.0006   -0.0000   -0.0000    0.0104    0.0007   -0.0000
   41 O2     2pz       -0.0000   -0.0000    0.0000    0.0000    0.0000   -0.0000   -0.0000    0.0000    0.0000   -0.0000
   42 O2     3pz       -0.0000   -0.0000    0.0000   -0.0000    0.0000    0.0000   -0.0000    0.0000    0.0000    0.0000
   43 O2     4pz       -0.0000    0.0000   -0.0000   -0.0000    0.0000    0.0000    0.0000    0.0000   -0.0000    0.0000
   44 O2     3d2-      -0.0000   -0.0009    0.0000    0.0000   -0.0258   -0.0000    0.0000   -0.0202   -0.0422    0.0000
   45 O2     4d2-      -0.0000   -0.0005    0.0000    0.0000   -0.0027    0.0000    0.0000   -0.0022   -0.0065    0.0000
   46 O2     3d1-      -0.0000   -0.0000   -0.0000   -0.0000    0.0000    0.0000   -0.0000    0.0000   -0.0000   -0.0000
   47 O2     4d1-      -0.0000   -0.0000   -0.0000   -0.0000    0.0000    0.0000   -0.0000    0.0000   -0.0000   -0.0000
   48 O2     3d0        0.0004   -0.0000   -0.0011   -0.0143    0.0000   -0.0021   -0.0128   -0.0000   -0.0000    0.0210
   49 O2     4d0        0.0004   -0.0000   -0.0006    0.0006    0.0000    0.0002   -0.0015   -0.0000   -0.0000    0.0026
   50 O2     3d1+      -0.0000   -0.0000    0.0000   -0.0000   -0.0000    0.0000    0.0000    0.0000    0.0000   -0.0000
   51 O2     4d1+      -0.0000   -0.0000    0.0000    0.0000   -0.0000    0.0000    0.0000    0.0000   -0.0000   -0.0000
   52 O2     3d2+       0.0008   -0.0000   -0.0016   -0.0225    0.0000   -0.0009    0.0140   -0.0000   -0.0000    0.0267
   53 O2     4d2+       0.0004   -0.0000   -0.0008   -0.0014    0.0000    0.0007    0.0011   -0.0000   -0.0000    0.0041
   54 O2     4f3-      -0.0000    0.0001   -0.0000   -0.0000    0.0074   -0.0000   -0.0000    0.0084   -0.0052   -0.0000
   55 O2     4f2-      -0.0000   -0.0000    0.0000    0.0000    0.0000    0.0000   -0.0000    0.0000   -0.0000   -0.0000
   56 O2     4f1-      -0.0000    0.0001   -0.0000   -0.0000    0.0063    0.0000   -0.0000    0.0058    0.0013   -0.0000
   57 O2     4f0       -0.0000    0.0000   -0.0000   -0.0000    0.0000   -0.0000    0.0000   -0.0000   -0.0000    0.0000
   58 O2     4f1+       0.0001   -0.0000   -0.0001   -0.0018   -0.0000   -0.0000   -0.0020   -0.0000    0.0000   -0.0003
   59 O2     4f2+       0.0000   -0.0000   -0.0000    0.0000   -0.0000   -0.0000    0.0000   -0.0000    0.0000    0.0000
   60 O2     4f3+       0.0001   -0.0000   -0.0002   -0.0077   -0.0000   -0.0003   -0.0100   -0.0000    0.0000    0.0039
   61 O3     1s         0.0051    0.7063    0.7063   -0.0128   -0.0113    0.0144   -0.0051   -0.0229   -0.0076    0.0006
   62 O3     2s         0.0024   -0.0055   -0.0055    0.3614    0.5765    0.6368   -0.1036   -0.4060   -0.0846   -0.0177
   63 O3     3s         0.0013   -0.0040   -0.0039   -0.0110   -0.0202    0.0234   -0.0069   -0.0500   -0.0156    0.0126
   64 O3     4s         0.0002   -0.0008   -0.0007   -0.0008   -0.0041    0.0037   -0.0016   -0.0105   -0.0036    0.0050
   65 O3     2px       -0.0004    0.0007    0.0007   -0.0232   -0.0323    0.0667    0.3593   -0.2409    0.6480    0.6420
   66 O3     3px       -0.0005    0.0007    0.0004    0.0098    0.0048   -0.0116   -0.0227    0.0184   -0.0033    0.0357
   67 O3     4px       -0.0002   -0.0002   -0.0003    0.0019   -0.0007    0.0000   -0.0023    0.0011   -0.0056   -0.0005
   68 O3     2py        0.0016   -0.0024   -0.0028    0.1170    0.0839   -0.1774    0.1977    0.3806    0.2679   -0.1036
   69 O3     3py        0.0008   -0.0023   -0.0027   -0.0135   -0.0184    0.0274   -0.0141   -0.0443   -0.0049    0.0117
   70 O3     4py       -0.0004    0.0016    0.0016   -0.0008   -0.0036   -0.0005   -0.0038   -0.0048   -0.0027    0.0041
   71 O3     2pz       -0.0000   -0.0000   -0.0000   -0.0000    0.0000   -0.0000   -0.0000    0.0000   -0.0000   -0.0000
   72 O3     3pz        0.0000    0.0000   -0.0000   -0.0000    0.0000    0.0000   -0.0000   -0.0000   -0.0000    0.0000
   73 O3     4pz       -0.0000    0.0000    0.0000    0.0000   -0.0000   -0.0000    0.0000   -0.0000   -0.0000   -0.0000
   74 O3     3d2-      -0.0001    0.0005    0.0005   -0.0067   -0.0072    0.0074    0.0167   -0.0148    0.0089   -0.0005
   75 O3     4d2-      -0.0000    0.0003    0.0003   -0.0001   -0.0007    0.0003    0.0016   -0.0008    0.0009   -0.0004
   76 O3     3d1-      -0.0000   -0.0000   -0.0000   -0.0000    0.0000    0.0000   -0.0000    0.0000   -0.0000    0.0000
   77 O3     4d1-       0.0000   -0.0000   -0.0000   -0.0000   -0.0000    0.0000   -0.0000    0.0000   -0.0000   -0.0000
   78 O3     3d0       -0.0002    0.0005    0.0006   -0.0112   -0.0094    0.0065   -0.0060   -0.0146   -0.0060    0.0040
   79 O3     4d0       -0.0001    0.0004    0.0004   -0.0011   -0.0011   -0.0000   -0.0009   -0.0007   -0.0011    0.0002
   80 O3     3d1+       0.0000    0.0000    0.0000    0.0000    0.0000   -0.0000   -0.0000    0.0000    0.0000   -0.0000
   81 O3     4d1+       0.0000   -0.0000   -0.0000    0.0000    0.0000    0.0000   -0.0000    0.0000   -0.0000   -0.0000
   82 O3     3d2+      -0.0005    0.0011    0.0012   -0.0185   -0.0131    0.0142   -0.0177   -0.0244   -0.0141    0.0098
   83 O3     4d2+      -0.0002    0.0005    0.0006   -0.0026   -0.0016    0.0015   -0.0020   -0.0020   -0.0018    0.0003
   84 O3     4f3-      -0.0001    0.0002    0.0001   -0.0045   -0.0040    0.0022   -0.0055   -0.0047   -0.0045    0.0020
   85 O3     4f2-       0.0000   -0.0000    0.0000    0.0000    0.0000   -0.0000   -0.0000    0.0000   -0.0000   -0.0000
   86 O3     4f1-      -0.0000    0.0002    0.0002   -0.0034   -0.0030    0.0015   -0.0013   -0.0033   -0.0011    0.0011
   87 O3     4f0        0.0000   -0.0000    0.0000    0.0000    0.0000   -0.0000    0.0000    0.0000    0.0000    0.0000
   88 O3     4f1+      -0.0000   -0.0000   -0.0000    0.0007    0.0006   -0.0004   -0.0001    0.0005    0.0011    0.0014
   89 O3     4f2+       0.0000    0.0000   -0.0000    0.0000    0.0000   -0.0000    0.0000    0.0000    0.0000   -0.0000
   90 O3     4f3+       0.0000   -0.0001   -0.0001    0.0030    0.0031   -0.0023   -0.0051    0.0049   -0.0034   -0.0020
 
 
      Orbital               11        12        13        14        15        16        17        18        19        20
      Energy            0.0000    0.0000    0.0000    0.1666    0.1697    0.2270    0.2371    0.2954    0.3622    0.3681
      Occ. No.          1.9886    1.7172    0.2941    0.0000    0.0000    0.0000    0.0000    0.0000    0.0000    0.0000
 
    1 O1     1s         0.0000    0.0000   -0.0000   -0.0826   -0.2186   -0.0000   -0.0456    0.0882   -0.0113    0.0000
    2 O1     2s         0.0000   -0.0000    0.0000   -0.7112   -1.5897   -0.0000   -0.2864    0.5714   -0.0334    0.0000
    3 O1     3s         0.0000   -0.0000    0.0000   -0.2504   -0.9463   -0.0000   -0.2288    0.5707   -0.0063   -0.0000
    4 O1     4s        -0.0000   -0.0000    0.0000   -0.0370   -0.2140   -0.0000   -0.0534    0.1499    0.0030   -0.0000
    5 O1     2px       -0.0000   -0.0000    0.0000    0.0155    0.2390    0.0000    0.0055   -0.1378   -0.1808    0.0000
    6 O1     3px       -0.0000   -0.0000   -0.0000    0.0498    0.2634    0.0000    0.4364    0.0465   -0.8455    0.0000
    7 O1     4px        0.0000   -0.0000    0.0000    0.0073    0.0376    0.0000    0.1966    0.0640   -0.3351    0.0000
    8 O1     2py       -0.0000    0.0000   -0.0000    0.9545    0.6195    0.0000    0.0692   -0.3347   -0.1345    0.0000
    9 O1     3py       -0.0000   -0.0000   -0.0000    0.5491    0.7864    0.0000    0.1872   -0.9720   -0.0868    0.0000
   10 O1     4py        0.0000    0.0000    0.0000    0.0764    0.1063   -0.0000    0.0037   -0.2273   -0.0124    0.0000
   11 O1     2pz       -0.3057   -0.6995    0.6686    0.0000    0.0000    0.0361   -0.0000    0.0000   -0.0000   -0.1727
   12 O1     3pz        0.0222    0.0024   -0.0656    0.0000   -0.0000    0.4414   -0.0000   -0.0000   -0.0000   -0.8835
   13 O1     4pz        0.0053    0.0084    0.0020    0.0000   -0.0000    0.2158   -0.0000   -0.0000   -0.0000   -0.3545
   14 O1     3d2-       0.0000   -0.0000    0.0000   -0.0252   -0.0447   -0.0000   -0.0126    0.0221    0.0103   -0.0000
   15 O1     4d2-       0.0000   -0.0000    0.0000   -0.0132   -0.0304   -0.0000   -0.0122    0.0159    0.0157   -0.0000
   16 O1     3d1-       0.0299    0.0188    0.0120   -0.0000   -0.0000    0.0058   -0.0000   -0.0000    0.0000    0.0103
   17 O1     4d1-       0.0049    0.0033    0.0047    0.0000    0.0000   -0.0026    0.0000    0.0000    0.0000    0.0136
   18 O1     3d0       -0.0000   -0.0000   -0.0000    0.0200    0.0522    0.0000    0.0256   -0.0573   -0.0079    0.0000
   19 O1     4d0       -0.0000   -0.0000   -0.0000    0.0149    0.0331    0.0000    0.0156   -0.0388   -0.0086    0.0000
   20 O1     3d1+       0.0061    0.0032    0.0027   -0.0000   -0.0000    0.0036   -0.0000    0.0000    0.0000    0.0099
   21 O1     4d1+       0.0008    0.0003    0.0004   -0.0000    0.0000    0.0007    0.0000    0.0000    0.0000    0.0078
   22 O1     3d2+      -0.0000   -0.0000   -0.0000    0.0202    0.0793    0.0000    0.0471   -0.1045    0.0029    0.0000
   23 O1     4d2+      -0.0000   -0.0000   -0.0000    0.0187    0.0481    0.0000    0.0265   -0.0711   -0.0011    0.0000
   24 O1     4f3-       0.0000    0.0000    0.0000   -0.0034   -0.0071    0.0000    0.0001    0.0109   -0.0022    0.0000
   25 O1     4f2-      -0.0024   -0.0016   -0.0004    0.0000   -0.0000    0.0010   -0.0000   -0.0000   -0.0000   -0.0048
   26 O1     4f1-       0.0000    0.0000   -0.0000   -0.0027   -0.0052   -0.0000   -0.0028    0.0108    0.0039   -0.0000
   27 O1     4f0        0.0035   -0.0003    0.0106    0.0000    0.0000   -0.0022    0.0000    0.0000    0.0000    0.0065
   28 O1     4f1+      -0.0000   -0.0000    0.0000   -0.0013   -0.0007   -0.0000   -0.0018    0.0017    0.0036   -0.0000
   29 O1     4f2+       0.0062    0.0047   -0.0005    0.0000   -0.0000   -0.0024    0.0000   -0.0000    0.0000    0.0060
   30 O1     4f3+       0.0000    0.0000    0.0000   -0.0041   -0.0038   -0.0000   -0.0046    0.0060    0.0090   -0.0000
   31 O2     1s        -0.0000   -0.0000    0.0000    0.2341   -0.0000    0.0000    0.0988   -0.2829   -0.0000    0.0000
   32 O2     2s        -0.0000   -0.0000   -0.0000    1.8790   -0.0000    0.0000    0.6067   -1.7358   -0.0000    0.0000
   33 O2     3s        -0.0000   -0.0000   -0.0000    0.8963   -0.0000    0.0000    0.4361   -1.0845   -0.0000    0.0000
   34 O2     4s        -0.0000   -0.0000   -0.0000    0.1973   -0.0000    0.0000    0.0905   -0.2024   -0.0000   -0.0000
   35 O2     2px       -0.0000    0.0000   -0.0000    0.5692   -0.0000   -0.0000   -0.1119   -0.1094    0.0000    0.0000
   36 O2     3px       -0.0000   -0.0000   -0.0000    0.2643   -0.0000    0.0000    0.2941   -0.2862    0.0000    0.0000
   37 O2     4px        0.0000    0.0000    0.0000    0.0245   -0.0000    0.0000    0.1537   -0.0011    0.0000    0.0000
[...]

                                   only a single process is used
                       available to each process: 2.0 GB of memory, 1 thread?
()()()()()()()()()()()()()()()()()()()()()()()()()()()()()()()()()()()()()()()()()()()()()()()()()()
 
 
      *** WARNING: Default frozen orbitals is overwritten by user input.
      *** Default values:   3
 
      Header of the integral files:
      
       Integrals generated by seward 4.2.0  , Thu Jan  2 03:27:08 2025
 
 
      Header of MO coefficients source file:
      * RASSCF average (pseudo-natural) orbitals                                      
 
 
      Cartesian coordinates in Angstrom:
      -----------------------------------------------------
      No.  Label        X            Y            Z        
      -----------------------------------------------------
       1   O1         0.31188100   1.23936000   0.00000000
       2   O2         0.00000000   0.00000000   0.00000000
       3   O3         0.31188100  -1.23936000   0.00000000
      -----------------------------------------------------
      Nuclear repulsion energy =   66.66378923
 
      Orbital specifications:
      -----------------------
 
      Symmetry species:              1
      Number of basis functions:    90
      Frozen orbitals:               0
      Deleted orbitals:              0
      Number of orbitals used:      90

       SYMMETRY  BASIS FUNCTIONS       ORBITALS      INTEGRALS   CPU(SEC)  I/O(SEC)
 
        1 1 1 1   90  90  90  90    90  90  90  90     8386560       0.00      0.00

       TOTAL CPU TIME(SEC)    4.55TOTAL I/O TIME(SEC)   11.01
 
--- Stop Module: motra at Thu Jan  2 03:27:24 2025 /rc=_RC_ALL_IS_WELL_ ---
*** files: xmldump
    saved to directory /home/grierjones/DDCASPT2/ozone/ANO-RCC-VTZP/ozone_151.75
--- Module motra spent 11 seconds ---

>>> COPY /tmp/ozone_151.75/GMJ_one_int_indx.csv /home/grierjones/DDCASPT2/ozone/ANO-RCC-VTZP/ozone_151.75/ozone_151.75.GMJ_one_int_indx.csv

>>> COPY /tmp/ozone_151.75/GMJ_one_int.csv /home/grierjones/DDCASPT2/ozone/ANO-RCC-VTZP/ozone_151.75/ozone_151.75.GMJ_one_int.csv

>>> COPY /tmp/ozone_151.75/GMJ_two_int_indx.csv /home/grierjones/DDCASPT2/ozone/ANO-RCC-VTZP/ozone_151.75/ozone_151.75.GMJ_two_int_indx.csv

>>> COPY /tmp/ozone_151.75/GMJ_two_int.csv /home/grierjones/DDCASPT2/ozone/ANO-RCC-VTZP/ozone_151.75/ozone_151.75.GMJ_two_int.csv

*** symbolic link created: INPORB -> ozone_151.75.RasOrb
--- Start Module: caspt2 at Thu Jan  2 03:27:24 2025 ---
 
()()()()()()()()()()()()()()()()()()()()()()()()()()()()()()()()()()()()()()()()()()()()()()()()()()

                                              &CASPT2

                                   only a single process is used
                       available to each process: 2.0 GB of memory, 1 thread?
()()()()()()()()()()()()()()()()()()()()()()()()()()()()()()()()()()()()()()()()()()()()()()()()()()
 
 Cholesky algorithm in CASPT2 =    1
 
 ###############################################################################
 ###############################################################################
 ###                                                                         ###
 ###                                                                         ###
 ###    User changed nr of frozen orbitals.                                  ###
 ###                                                                         ###
 ###                                                                         ###
 ###############################################################################
 ###############################################################################
 
++    Wave function specifications:
      -----------------------------
 
      Number of closed shell electrons          20
      Number of electrons in active shells       4
      Max number of holes in RAS1 space          0
      Max number of electrons in RAS3 space      0
      Number of inactive orbitals               10
      Number of active orbitals                  3
      Number of secondary orbitals              77
      Spin quantum number                      0.0
      State symmetry                             1
      Number of CSFs                             6
      Number of root(s) available                1
      Root passed to geometry opt.               1
      A file JOBMIX will be created.
      This is a CASSCF or RASSCF reference function
--
 
++    Orbital specifications:
      -----------------------
 
      Symmetry species                           1
                                                 a
      Frozen orbitals                            0
      Inactive orbitals                         10
      Active orbitals                            3
      Secondary orbitals                        77
      Deleted orbitals                           0
      Number of basis functions                 90
--
 
      Type of Fock operator: STANDARD
      Type of 0-order Hamiltonian: STANDARD WITH DEFAULT IPEA
        "IP-EA" denominator shift =      0.25
      The input orbitals and the CI vector will be transformed.
 
--------------------------------------------------------------------------------
 Estimated memory requirements:
  POLY3 :                   250202
  RHS:                      446386
  SIGMA :                   610360
  PRPCTL:                        0
 Available workspace:    230385072
 
++ CASPT2 computation for group   1
 
********************************************************************************
 Multi-State initialization phase begins for group   1
--------------------------------------------------------------------------------
********************************************************************************
 Compute H0 matrices for state    1
--------------------------------------------------------------------------------
--------------------------------------------------------------------------------
 H0 matrices have been computed.
 
********************************************************************************
  CASPT2 EQUATION SOLUTION
--------------------------------------------------------------------------------
 
  Total nr of CASPT2 parameters:
   Before reduction:      541275
   After  reduction:      532232
 
 The contributions to the second order correlation energy in atomic units.
-----------------------------------------------------------------------------------------------------------------------------
  IT.      VJTU        VJTI        ATVX        AIVX        VJAI        BVAT        BJAT        BJAI        TOTAL       RNORM  
-----------------------------------------------------------------------------------------------------------------------------
   1    -0.000000   -0.001462   -0.014726   -0.102635   -0.018832   -0.023465   -0.172027   -0.364049   -0.697196    0.003022
   2    -0.000000   -0.001486   -0.014793   -0.103099   -0.018859   -0.023473   -0.172073   -0.364054   -0.697837    0.000272
   3    -0.000000   -0.001487   -0.014793   -0.103105   -0.018860   -0.023473   -0.172074   -0.364054   -0.697845    0.000034
   4    -0.000000   -0.001487   -0.014793   -0.103102   -0.018859   -0.023473   -0.172073   -0.364054   -0.697842    0.000006
-------------------------------------------------------------------------------------------------------------------
 
  FINAL CASPT2 RESULT:
 
  Correlation energy /Case, /Symm, and sums:
 VJTU     -0.00000000 -0.00000000
 VJTIP    -0.00148688 -0.00148688
 VJTIM     0.00000000  0.00000000
 ATVX     -0.01479292 -0.01479292
 AIVX     -0.10310213 -0.10310213
 VJAIP    -0.01322850 -0.01322850
 VJAIM    -0.00563078 -0.00563078
 BVATP    -0.02209870 -0.02209870
 BVATM    -0.00137442 -0.00137442
 BJATP    -0.07101648 -0.07101648
 BJATM    -0.10105666 -0.10105666
 BJAIP    -0.25095117 -0.25095117
 BJAIM    -0.11310325 -0.11310325
 Summed:  -0.69784190 -0.69784190
 
      Reference energy:        -224.5352967870
      E2 (Non-variational):      -0.6978419025
      E2 (Variational):          -0.6978419533
      Total energy:            -225.2331387402
      Residual norm:              0.0000005224
      Reference weight:           0.84648
 
      Contributions to the CASPT2 correlation energy
      Active & Virtual Only:         -0.0382660409
      One Inactive Excited:          -0.2751752762
      Two Inactive Excited:          -0.3844005854
 
 
++ Denominators, etc.
----------------------------------------------------------------------------------------------------
 Report on small energy denominators, large coefficients, and large energy contributions.
CASE  SYMM ACTIVE-MIX  NON-ACTIVE INDICES          DENOMINATOR     RHS VALUE       COEFFICIENT     CONTRIBUTION
ATVX     1  Mu1.0005  Se1.020                       1.52229933     -0.06201455      0.03983255     -0.00247020
ATVX     1  Mu1.0005  Se1.042                       3.08265877      0.09819442     -0.03118553     -0.00306224
AIVX     1  Mu1.0005  In1.004 Se1.014               2.63564519     -0.07223348      0.02753665     -0.00198907
AIVX     1  Mu1.0003  In1.005 Se1.014               2.04859169      0.06098011     -0.02925621     -0.00178405
AIVX     1  Mu1.0004  In1.007 Se1.014               1.58383269     -0.05735772      0.03677586     -0.00210938
AIVX     1  Mu1.0002  In1.008 Se1.014               1.29407486      0.07588006     -0.05795377     -0.00439754
AIVX     1  Mu1.0003  In1.008 Se1.014               1.38724745      0.03718839     -0.02665549     -0.00099127
AIVX     1  Mu1.0002  In1.009 Se1.014               1.11179716      0.05557156     -0.04916724     -0.00273230
AIVX     1  Mu1.0003  In1.009 Se1.014               1.20496976      0.03662623     -0.03008244     -0.00110181
AIVX     1  Mu1.0002  In1.008 Se1.018               1.42287647      0.03977031     -0.02733979     -0.00108731
AIVX     1  Mu1.0002  In1.009 Se1.018               1.24059878      0.04881298     -0.03838032     -0.00187346
AIVX     1  Mu1.0003  In1.009 Se1.018               1.33377137      0.03413602     -0.02509452     -0.00085663
AIVX     1  Mu1.0004  In1.006 Se1.021               2.13830971     -0.05610249      0.02637784     -0.00147986
AIVX     1  Mu1.0002  In1.008 Se1.021               1.58579995     -0.05484174      0.03377453     -0.00185225
AIVX     1  Mu1.0004  In1.008 Se1.022               1.92494308     -0.08069217      0.04253411     -0.00343217
AIVX     1  Mu1.0002  In1.010 Se1.022               1.33802210     -0.03424631      0.02500527     -0.00085634
AIVX     1  Mu1.0004  In1.008 Se1.025               2.05038217      0.09023890     -0.04449192     -0.00401490
AIVX     1  Mu1.0005  In1.008 Se1.025               2.21211706      0.05967242     -0.02731104     -0.00162972
AIVX     1  Mu1.0002  In1.010 Se1.025               1.46346119      0.05960898     -0.04015342     -0.00239350
BJAIP    1  Se1.022 In1.008 Se1.025 In1.008         2.72989815     -0.07264778      0.02661188     -0.00193329
--
 
   (Skipping property calculation,
    use PROP keyword to activate)
--
 
  Total CASPT2 energies:
::    CASPT2 Root  1     Total energy:   -225.23313874
 
  A NEW JOBIPH FILE NAMED 'JOBMIX' IS PREPARED.
********************************************************************************
--- Stop Module: caspt2 at Thu Jan  2 03:27:25 2025 /rc=_RC_ALL_IS_WELL_ ---
*** files: xmldump
    saved to directory /home/grierjones/DDCASPT2/ozone/ANO-RCC-VTZP/ozone_151.75
--- Module caspt2 spent 1 second ---

>>> EXPORT i = B

>>> EXPORT j = P

>>> IF (-FILE GMJ_e2_${i}_${j}.csv)

>>> COPY /tmp/ozone_151.75/GMJ_RHS_B_P.csv /home/grierjones/DDCASPT2/ozone/ANO-RCC-VTZP/ozone_151.75/GMJ_RHS_B_P.csv

>>> COPY /tmp/ozone_151.75/GMJ_IVECW_B_P.csv /home/grierjones/DDCASPT2/ozone/ANO-RCC-VTZP/ozone_151.75/GMJ_IVECW_B_P.csv

>>> COPY /tmp/ozone_151.75/GMJ_IVECX_B_P.csv /home/grierjones/DDCASPT2/ozone/ANO-RCC-VTZP/ozone_151.75/GMJ_IVECX_B_P.csv

>>> COPY /tmp/ozone_151.75/GMJ_IVECC2_B_P.csv /home/grierjones/DDCASPT2/ozone/ANO-RCC-VTZP/ozone_151.75/GMJ_IVECC2_B_P.csv

>>> COPY /tmp/ozone_151.75/GMJ_e2_B_P.csv /home/grierjones/DDCASPT2/ozone/ANO-RCC-VTZP/ozone_151.75/GMJ_e2_B_P.csv

>>> END FOREACH

>>> EXPORT j = M

>>> IF (-FILE GMJ_e2_${i}_${j}.csv)
(Skipped)

>>> END FOREACH

>>> END FOREACH

>>> EXPORT i = E

>>> EXPORT j = P

>>> IF (-FILE GMJ_e2_${i}_${j}.csv)

>>> COPY /tmp/ozone_151.75/GMJ_RHS_E_P.csv /home/grierjones/DDCASPT2/ozone/ANO-RCC-VTZP/ozone_151.75/GMJ_RHS_E_P.csv

>>> COPY /tmp/ozone_151.75/GMJ_IVECW_E_P.csv /home/grierjones/DDCASPT2/ozone/ANO-RCC-VTZP/ozone_151.75/GMJ_IVECW_E_P.csv

>>> COPY /tmp/ozone_151.75/GMJ_IVECX_E_P.csv /home/grierjones/DDCASPT2/ozone/ANO-RCC-VTZP/ozone_151.75/GMJ_IVECX_E_P.csv

>>> COPY /tmp/ozone_151.75/GMJ_IVECC2_E_P.csv /home/grierjones/DDCASPT2/ozone/ANO-RCC-VTZP/ozone_151.75/GMJ_IVECC2_E_P.csv

>>> COPY /tmp/ozone_151.75/GMJ_e2_E_P.csv /home/grierjones/DDCASPT2/ozone/ANO-RCC-VTZP/ozone_151.75/GMJ_e2_E_P.csv

>>> END FOREACH

>>> EXPORT j = M

>>> IF (-FILE GMJ_e2_${i}_${j}.csv)

>>> COPY /tmp/ozone_151.75/GMJ_RHS_E_M.csv /home/grierjones/DDCASPT2/ozone/ANO-RCC-VTZP/ozone_151.75/GMJ_RHS_E_M.csv

>>> COPY /tmp/ozone_151.75/GMJ_IVECW_E_M.csv /home/grierjones/DDCASPT2/ozone/ANO-RCC-VTZP/ozone_151.75/GMJ_IVECW_E_M.csv

>>> COPY /tmp/ozone_151.75/GMJ_IVECX_E_M.csv /home/grierjones/DDCASPT2/ozone/ANO-RCC-VTZP/ozone_151.75/GMJ_IVECX_E_M.csv

>>> COPY /tmp/ozone_151.75/GMJ_IVECC2_E_M.csv /home/grierjones/DDCASPT2/ozone/ANO-RCC-VTZP/ozone_151.75/GMJ_IVECC2_E_M.csv

>>> COPY /tmp/ozone_151.75/GMJ_e2_E_M.csv /home/grierjones/DDCASPT2/ozone/ANO-RCC-VTZP/ozone_151.75/GMJ_e2_E_M.csv

>>> END FOREACH

>>> END FOREACH

>>> EXPORT i = F

>>> EXPORT j = P

>>> IF (-FILE GMJ_e2_${i}_${j}.csv)

>>> COPY /tmp/ozone_151.75/GMJ_RHS_F_P.csv /home/grierjones/DDCASPT2/ozone/ANO-RCC-VTZP/ozone_151.75/GMJ_RHS_F_P.csv

>>> COPY /tmp/ozone_151.75/GMJ_IVECW_F_P.csv /home/grierjones/DDCASPT2/ozone/ANO-RCC-VTZP/ozone_151.75/GMJ_IVECW_F_P.csv

>>> COPY /tmp/ozone_151.75/GMJ_IVECX_F_P.csv /home/grierjones/DDCASPT2/ozone/ANO-RCC-VTZP/ozone_151.75/GMJ_IVECX_F_P.csv

>>> COPY /tmp/ozone_151.75/GMJ_IVECC2_F_P.csv /home/grierjones/DDCASPT2/ozone/ANO-RCC-VTZP/ozone_151.75/GMJ_IVECC2_F_P.csv

>>> COPY /tmp/ozone_151.75/GMJ_e2_F_P.csv /home/grierjones/DDCASPT2/ozone/ANO-RCC-VTZP/ozone_151.75/GMJ_e2_F_P.csv

>>> END FOREACH

>>> EXPORT j = M

>>> IF (-FILE GMJ_e2_${i}_${j}.csv)

>>> COPY /tmp/ozone_151.75/GMJ_RHS_F_M.csv /home/grierjones/DDCASPT2/ozone/ANO-RCC-VTZP/ozone_151.75/GMJ_RHS_F_M.csv

>>> COPY /tmp/ozone_151.75/GMJ_IVECW_F_M.csv /home/grierjones/DDCASPT2/ozone/ANO-RCC-VTZP/ozone_151.75/GMJ_IVECW_F_M.csv

>>> COPY /tmp/ozone_151.75/GMJ_IVECX_F_M.csv /home/grierjones/DDCASPT2/ozone/ANO-RCC-VTZP/ozone_151.75/GMJ_IVECX_F_M.csv

>>> COPY /tmp/ozone_151.75/GMJ_IVECC2_F_M.csv /home/grierjones/DDCASPT2/ozone/ANO-RCC-VTZP/ozone_151.75/GMJ_IVECC2_F_M.csv

>>> COPY /tmp/ozone_151.75/GMJ_e2_F_M.csv /home/grierjones/DDCASPT2/ozone/ANO-RCC-VTZP/ozone_151.75/GMJ_e2_F_M.csv

>>> END FOREACH

>>> END FOREACH

>>> EXPORT i = G

>>> EXPORT j = P

>>> IF (-FILE GMJ_e2_${i}_${j}.csv)

>>> COPY /tmp/ozone_151.75/GMJ_RHS_G_P.csv /home/grierjones/DDCASPT2/ozone/ANO-RCC-VTZP/ozone_151.75/GMJ_RHS_G_P.csv

>>> COPY /tmp/ozone_151.75/GMJ_IVECW_G_P.csv /home/grierjones/DDCASPT2/ozone/ANO-RCC-VTZP/ozone_151.75/GMJ_IVECW_G_P.csv

>>> COPY /tmp/ozone_151.75/GMJ_IVECX_G_P.csv /home/grierjones/DDCASPT2/ozone/ANO-RCC-VTZP/ozone_151.75/GMJ_IVECX_G_P.csv

>>> COPY /tmp/ozone_151.75/GMJ_IVECC2_G_P.csv /home/grierjones/DDCASPT2/ozone/ANO-RCC-VTZP/ozone_151.75/GMJ_IVECC2_G_P.csv

>>> COPY /tmp/ozone_151.75/GMJ_e2_G_P.csv /home/grierjones/DDCASPT2/ozone/ANO-RCC-VTZP/ozone_151.75/GMJ_e2_G_P.csv

>>> END FOREACH

>>> EXPORT j = M

>>> IF (-FILE GMJ_e2_${i}_${j}.csv)

>>> COPY /tmp/ozone_151.75/GMJ_RHS_G_M.csv /home/grierjones/DDCASPT2/ozone/ANO-RCC-VTZP/ozone_151.75/GMJ_RHS_G_M.csv

>>> COPY /tmp/ozone_151.75/GMJ_IVECW_G_M.csv /home/grierjones/DDCASPT2/ozone/ANO-RCC-VTZP/ozone_151.75/GMJ_IVECW_G_M.csv

>>> COPY /tmp/ozone_151.75/GMJ_IVECX_G_M.csv /home/grierjones/DDCASPT2/ozone/ANO-RCC-VTZP/ozone_151.75/GMJ_IVECX_G_M.csv

>>> COPY /tmp/ozone_151.75/GMJ_IVECC2_G_M.csv /home/grierjones/DDCASPT2/ozone/ANO-RCC-VTZP/ozone_151.75/GMJ_IVECC2_G_M.csv

>>> COPY /tmp/ozone_151.75/GMJ_e2_G_M.csv /home/grierjones/DDCASPT2/ozone/ANO-RCC-VTZP/ozone_151.75/GMJ_e2_G_M.csv

>>> END FOREACH

>>> END FOREACH

>>> EXPORT i = H

>>> EXPORT j = P

>>> IF (-FILE GMJ_e2_${i}_${j}.csv)

>>> COPY /tmp/ozone_151.75/GMJ_RHS_H_P.csv /home/grierjones/DDCASPT2/ozone/ANO-RCC-VTZP/ozone_151.75/GMJ_RHS_H_P.csv

>>> COPY /tmp/ozone_151.75/GMJ_IVECW_H_P.csv /home/grierjones/DDCASPT2/ozone/ANO-RCC-VTZP/ozone_151.75/GMJ_IVECW_H_P.csv

>>> COPY /tmp/ozone_151.75/GMJ_IVECX_H_P.csv /home/grierjones/DDCASPT2/ozone/ANO-RCC-VTZP/ozone_151.75/GMJ_IVECX_H_P.csv

>>> COPY /tmp/ozone_151.75/GMJ_IVECC2_H_P.csv /home/grierjones/DDCASPT2/ozone/ANO-RCC-VTZP/ozone_151.75/GMJ_IVECC2_H_P.csv

>>> COPY /tmp/ozone_151.75/GMJ_e2_H_P.csv /home/grierjones/DDCASPT2/ozone/ANO-RCC-VTZP/ozone_151.75/GMJ_e2_H_P.csv

>>> END FOREACH

>>> EXPORT j = M

>>> IF (-FILE GMJ_e2_${i}_${j}.csv)

>>> COPY /tmp/ozone_151.75/GMJ_RHS_H_M.csv /home/grierjones/DDCASPT2/ozone/ANO-RCC-VTZP/ozone_151.75/GMJ_RHS_H_M.csv

>>> COPY /tmp/ozone_151.75/GMJ_IVECW_H_M.csv /home/grierjones/DDCASPT2/ozone/ANO-RCC-VTZP/ozone_151.75/GMJ_IVECW_H_M.csv

>>> COPY /tmp/ozone_151.75/GMJ_IVECX_H_M.csv /home/grierjones/DDCASPT2/ozone/ANO-RCC-VTZP/ozone_151.75/GMJ_IVECX_H_M.csv

>>> COPY /tmp/ozone_151.75/GMJ_IVECC2_H_M.csv /home/grierjones/DDCASPT2/ozone/ANO-RCC-VTZP/ozone_151.75/GMJ_IVECC2_H_M.csv

>>> COPY /tmp/ozone_151.75/GMJ_e2_H_M.csv /home/grierjones/DDCASPT2/ozone/ANO-RCC-VTZP/ozone_151.75/GMJ_e2_H_M.csv

>>> END FOREACH

>>> END FOREACH

>>> EXPORT i = A

>>> IF (-FILE GMJ_e2_$i.csv)

>>> COPY /tmp/ozone_151.75/GMJ_RHS_A.csv /home/grierjones/DDCASPT2/ozone/ANO-RCC-VTZP/ozone_151.75/GMJ_RHS_A.csv

>>> COPY /tmp/ozone_151.75/GMJ_IVECW_A.csv /home/grierjones/DDCASPT2/ozone/ANO-RCC-VTZP/ozone_151.75/GMJ_IVECW_A.csv

>>> COPY /tmp/ozone_151.75/GMJ_IVECX_A.csv /home/grierjones/DDCASPT2/ozone/ANO-RCC-VTZP/ozone_151.75/GMJ_IVECX_A.csv

>>> COPY /tmp/ozone_151.75/GMJ_IVECC2_A.csv /home/grierjones/DDCASPT2/ozone/ANO-RCC-VTZP/ozone_151.75/GMJ_IVECC2_A.csv

>>> COPY /tmp/ozone_151.75/GMJ_e2_A.csv /home/grierjones/DDCASPT2/ozone/ANO-RCC-VTZP/ozone_151.75/GMJ_e2_A.csv

>>> END FOREACH

>>> EXPORT i = C

>>> IF (-FILE GMJ_e2_$i.csv)

>>> COPY /tmp/ozone_151.75/GMJ_RHS_C.csv /home/grierjones/DDCASPT2/ozone/ANO-RCC-VTZP/ozone_151.75/GMJ_RHS_C.csv

>>> COPY /tmp/ozone_151.75/GMJ_IVECW_C.csv /home/grierjones/DDCASPT2/ozone/ANO-RCC-VTZP/ozone_151.75/GMJ_IVECW_C.csv

>>> COPY /tmp/ozone_151.75/GMJ_IVECX_C.csv /home/grierjones/DDCASPT2/ozone/ANO-RCC-VTZP/ozone_151.75/GMJ_IVECX_C.csv

>>> COPY /tmp/ozone_151.75/GMJ_IVECC2_C.csv /home/grierjones/DDCASPT2/ozone/ANO-RCC-VTZP/ozone_151.75/GMJ_IVECC2_C.csv

>>> COPY /tmp/ozone_151.75/GMJ_e2_C.csv /home/grierjones/DDCASPT2/ozone/ANO-RCC-VTZP/ozone_151.75/GMJ_e2_C.csv

>>> END FOREACH

>>> EXPORT i = D

>>> IF (-FILE GMJ_e2_$i.csv)

>>> COPY /tmp/ozone_151.75/GMJ_RHS_D.csv /home/grierjones/DDCASPT2/ozone/ANO-RCC-VTZP/ozone_151.75/GMJ_RHS_D.csv

>>> COPY /tmp/ozone_151.75/GMJ_IVECW_D.csv /home/grierjones/DDCASPT2/ozone/ANO-RCC-VTZP/ozone_151.75/GMJ_IVECW_D.csv

>>> COPY /tmp/ozone_151.75/GMJ_IVECX_D.csv /home/grierjones/DDCASPT2/ozone/ANO-RCC-VTZP/ozone_151.75/GMJ_IVECX_D.csv

>>> COPY /tmp/ozone_151.75/GMJ_IVECC2_D.csv /home/grierjones/DDCASPT2/ozone/ANO-RCC-VTZP/ozone_151.75/GMJ_IVECC2_D.csv

>>> COPY /tmp/ozone_151.75/GMJ_e2_D.csv /home/grierjones/DDCASPT2/ozone/ANO-RCC-VTZP/ozone_151.75/GMJ_e2_D.csv

>>> END FOREACH

.########################.
.# Non-zero return code #.
.########################.

    Timing: Wall=16.90 User=9.30 System=7.59
********************************************
*** WorkDir at /tmp/ozone_151.75 cleaned ***
********************************************
