[Molden Format]
[N_Atoms]
                     2
[Atoms] (AU)
BE1         1      4           0.00000000      0.00000000      0.00000000
LI2         2      3           0.00000000      0.00000000      3.21253441
[Charge] (Mulliken)
 -0.261429473617900     
  0.261429473617882     
[GTO] (AU)
   1
   s  14
  2.262859900E+04  8.443999941E-05
  3.372318100E+03  4.601499968E-04
  7.603504000E+02  2.285389984E-03
  2.117404800E+02  9.648129932E-03
  6.722346800E+01  3.494469975E-02
  2.337217700E+01  1.061099893E-01
  8.721373000E+00  2.458240383E-01
  3.468091000E+00  3.862428773E-01
  1.452144000E+00  3.105526078E-01
  6.086150000E-01  6.415933955E-02
  2.576860000E-01 -2.265049984E-03
  1.041760000E-01 -5.217499963E-04
  4.242700000E-02 -8.757499938E-04
  1.484900000E-02  1.242199991E-04
   s  14
  2.262859900E+04 -1.586999994E-05
  3.372318100E+03 -8.656999968E-05
  7.603504000E+02 -4.302199984E-04
  2.117404800E+02 -1.825079993E-03
  6.722346800E+01 -6.682749976E-03
  2.337217700E+01 -2.095119992E-02
  8.721373000E+00 -5.200308981E-02
  3.468091000E+00 -9.849176964E-02
  1.452144000E+00 -1.355800695E-01
  6.086150000E-01 -6.429875976E-02
  2.576860000E-01  3.125414989E-01
  1.041760000E-01  6.270468577E-01
  4.242700000E-02  2.110231492E-01
  1.484900000E-02 -4.104669985E-03
   p   9
  3.371018400E+01  1.069960000E-03
  8.057649500E+00  6.828550001E-03
  2.836471400E+00  2.119065000E-02
  1.099965700E+00  5.843696001E-02
  4.433964000E-01  2.020920800E-01
  1.822264000E-01  4.582953101E-01
  7.572410000E-02  3.691239601E-01
  3.168540000E-02  6.611471001E-02
  1.108990000E-02  1.405160000E-03
 
   2
   s  14
  9.497934400E+03  9.668999974E-05
  1.416811200E+03  6.087099984E-04
  3.214599400E+02  3.101519992E-03
  9.112416300E+01  1.266904997E-02
  2.999989100E+01  4.248012989E-02
  1.101763100E+01  1.150183297E-01
  4.372801000E+00  2.398650094E-01
  1.831256000E+00  3.584300090E-01
  8.022610000E-01  3.048527792E-01
  3.626480000E-01  8.824261976E-02
  1.139950000E-01 -8.445899977E-04
  5.123700000E-02 -7.943959979E-03
  2.246800000E-02 -3.764419990E-03
  7.860000000E-03 -8.868999976E-05
   s  14
  9.497934400E+03 -1.244999993E-05
  1.416811200E+03 -7.838999954E-05
  3.214599400E+02 -4.007099976E-04
  9.112416300E+01 -1.645249990E-03
  2.999989100E+01 -5.634599967E-03
  1.101763100E+01 -1.590780991E-02
  4.372801000E+00 -3.612581979E-02
  1.831256000E+00 -6.459927962E-02
  8.022610000E-01 -1.008321794E-01
  3.626480000E-01 -9.757613942E-02
  1.139950000E-01  2.301215886E-01
  5.123700000E-02  6.102389764E-01
  2.246800000E-02  2.849406083E-01
  7.860000000E-03  4.026899976E-03
   p   9
  1.311950400E+01  1.524940000E-03
  3.077424200E+00  8.314830000E-03
  1.098800500E+00  1.933203000E-02
  4.357784000E-01  4.934293000E-02
  1.802432000E-01  1.623554000E-01
  7.613330000E-02  3.847505400E-01
  3.254650000E-02  4.336100400E-01
  1.401820000E-02  1.287005900E-01
  4.906400000E-03 -1.018520000E-03
 
[MO]
Sym=     1a  
Ene=    -4.7220
Spin= Alpha
Occup=    1.00000
   1         1.00022894
   2         0.00510726
   3        -0.00000000
   4         0.00000000
   5         0.00122818
   6        -0.00007370
   7        -0.00131376
   8         0.00000000
   9         0.00000000
  10         0.00083918
Sym=     1a  
Ene=    -4.7172
Spin= Beta
Occup=    1.00000
   1         1.00014307
   2         0.00378677
   3        -0.00000000
   4        -0.00000000
   5         0.00222172
   6        -0.00004200
   7        -0.00121694
   8        -0.00000000
   9         0.00000000
  10         0.00026269
Sym=     2a  
Ene=    -2.4747
Spin= Alpha
Occup=    1.00000
   1        -0.00386301
   2         0.00553157
   3         0.00000000
   4         0.00000000
   5         0.00453808
   6         0.99810506
   7         0.00890762
   8        -0.00000000
   9         0.00000000
  10        -0.00005616
Sym=     2a  
Ene=    -2.4672
Spin= Beta
Occup=    1.00000
   1        -0.00363795
   2         0.00930044
   3        -0.00000000
   4         0.00000000
   5         0.00709050
   6         0.99696928
   7         0.00737071
   8        -0.00000000
   9         0.00000000
  10         0.00115723
Sym=     3a  
Ene=    -0.3539
Spin= Alpha
Occup=    1.00000
   1        -0.02430527
   2         0.87095340
   3        -0.00000000
   4         0.00000000
   5        -0.08668231
   6        -0.10928887
   7         0.16453314
   8         0.00000000
   9        -0.00000000
  10        -0.04140082
Sym=     3a  
Ene=    -0.3372
Spin= Beta
Occup=    1.00000
   1        -0.02705504
   2         0.83084040
   3        -0.00000000
   4         0.00000000
   5         0.34317317
   6        -0.20650220
   7         0.06698066
   8        -0.00000000
   9         0.00000000
  10        -0.13284575
Sym=     4a  
Ene=    -0.1843
Spin= Alpha
Occup=    1.00000
   1        -0.03663543
   2        -0.31084552
   3         0.00000000
   4        -0.00000000
   5         0.62555773
   6        -0.11077103
   7         0.63762993
   8         0.00000000
   9        -0.00000000
  10         0.16807215
Sym=     4a  
Ene=     0.0302
Spin= Beta
Occup=    0.00000
   1         0.00000000
   2         0.00000000
   3         0.23198586
   4         0.37946994
   5        -0.00000000
   6        -0.00000000
   7        -0.00000000
   8         0.35964732
   9         0.58829167
  10        -0.00000000
Sym=     5a  
Ene=     0.0128
Spin= Alpha
Occup=    0.00000
   1        -0.00000000
   2         0.00000000
   3         0.21818882
   4         0.34554492
   5         0.00000000
   6        -0.00000000
   7        -0.00000000
   8         0.38472134
   9         0.60928192
  10        -0.00000000
Sym=     5a  
Ene=     0.0302
Spin= Beta
Occup=    0.00000
   1         0.00000000
   2         0.00000000
   3         0.37946994
   4        -0.23198586
   5        -0.00000000
   6        -0.00000000
   7        -0.00000000
   8         0.58829167
   9        -0.35964732
  10        -0.00000000
Sym=     6a  
Ene=     0.0128
Spin= Alpha
Occup=    0.00000
   1        -0.00000000
   2         0.00000000
   3         0.34554492
   4        -0.21818882
   5         0.00000000
   6        -0.00000000
   7        -0.00000000
   8         0.60928192
   9        -0.38472134
  10        -0.00000000
Sym=     6a  
Ene=     0.0566
Spin= Beta
Occup=    0.00000
   1         0.01019888
   2        -0.22315773
   3         0.00000000
   4        -0.00000000
   5         0.04540470
   6         0.01229044
   7         0.78199371
   8         0.00000000
   9        -0.00000000
  10         0.60874526
Sym=     7a  
Ene=     0.0478
Spin= Alpha
Occup=    0.00000
   1         0.06952376
   2         0.10888789
   3         0.00000000
   4        -0.00000000
   5        -0.73419488
   6         0.15388093
   7         0.43262146
   8         0.00000000
   9        -0.00000000
  10         0.80336403
Sym=     7a  
Ene=     0.1486
Spin= Beta
Occup=    0.00000
   1        -0.03627542
   2         0.02431200
   3         0.00000000
   4        -0.00000000
   5        -1.07405772
   6         0.24507436
   7         0.50427514
   8        -0.00000000
   9         0.00000000
  10         0.07588593
Sym=     8a  
Ene=     0.1709
Spin= Alpha
Occup=    0.00000
   1         0.00000000
   2         0.00000000
   3        -0.22070231
   4        -1.08653588
   5        -0.00000000
   6         0.00000000
   7        -0.00000000
   8         0.18642047
   9         0.91776349
  10         0.00000000
Sym=     8a  
Ene=     0.1989
Spin= Beta
Occup=    0.00000
   1        -0.00000000
   2        -0.00000000
   3        -0.21357397
   4        -1.07370790
   5         0.00000000
   6         0.00000000
   7         0.00000000
   8         0.18721005
   9         0.94116763
  10        -0.00000000
Sym=     9a  
Ene=     0.1709
Spin= Alpha
Occup=    0.00000
   1        -0.00000000
   2        -0.00000000
   3        -1.08653588
   4         0.22070231
   5         0.00000000
   6        -0.00000000
   7        -0.00000000
   8         0.91776349
   9        -0.18642047
  10        -0.00000000
Sym=     9a  
Ene=     0.1989
Spin= Beta
Occup=    0.00000
   1         0.00000000
   2         0.00000000
   3        -1.07370790
   4         0.21357397
   5        -0.00000000
   6         0.00000000
   7         0.00000000
   8         0.94116763
   9        -0.18721005
  10         0.00000000
Sym=    10a  
Ene=     0.2357
Spin= Alpha
Occup=    0.00000
   1         0.38050917
   2         2.19965546
   3         0.00000000
   4         0.00000000
   5         0.74215662
   6        -0.46829619
   7        -1.86334080
   8        -0.00000000
   9        -0.00000000
  10         1.52138616
Sym=    10a  
Ene=     0.2356
Spin= Beta
Occup=    0.00000
   1         0.38674958
   2         2.22818202
   3         0.00000000
   4        -0.00000000
   5         0.46390987
   6        -0.40817306
   7        -1.79515309
   8        -0.00000000
   9         0.00000000
  10         1.61120878
