****************************************************************************************************
*** WorkDir at /lustre/isaac/scratch/gjones39/scpfiles/ANO-RCC-VTZP/ozone_145.25/3252816 cleaned ***
****************************************************************************************************
   This run of MOLCAS is using the pymolcas driver

                             OPE
                             OPE          NMOL  CASOP  ENMOLC A   SO
                 OPE        NMOLC        AS  OP EN  MO LC     AS  OP
                OPENM       OL CA        SO  PE NM  OL CA     SOP EN
                OP EN      MO   LC       AS  OP ENMOL  CASO   PENMOL
                OP  EN     MO   LC       AS  OP EN     MO     LC ASO
               OP   E  NMOL  C  AS       OP  EN MO     LC     AS  OP
               OP  E   NMO   LC AS        OPEN  MO     LCASOP EN   M
               O  PEN   MO  LCA  SO
            OPE   NMO   L   CAS    OP
        OPENMOL  CASOP     ENMOL   CASOPE
     OPENMOLCA   SOPENMOLCASOPEN   MOLCASOPE
    OPENMOLCAS   OP           EN   MOL    CAS
    OPENMOLCAS       OP  ENM        O     LCA
    OPENMOLCAS    OPEN  MOLCASO     P  E  NMO
    OPENMOLCAS     OP               E  N  MOL
    OPENMOLCA   SO           PENM   O  L  CAS    OPEN    MO    LCAS
    OPENMOLCA   SOP           ENM   O  L  CAS   OP  EN  MOLC  AS   O
    OPENMOLCA   SOPE           NM      O  LCA   S      OP  EN MO
    OPENMOLC                AS         O  PEN   M      OL  CA  SOPE
    OPENMO        LCASOPE  NMOL        C  ASO   P      ENMOLC     AS
    OPE     NMO      LCA  SO     P     E   NM   OL  CA SO  PE N   MO
          OPENMOLCA            SOPE   NMO        LCAS  O    P  ENMO
     OPENMOLCASOPENMOLCASOPENMOLCASOPENMOLCA
        OPENMOLCASOPENMOLCASOPENMOLCASOPE
            OPENMOLCASOPENMOLCASOPENM
               OPENMOLCASOPENMOLCA        version: f37762c57-dirty
                   OPENMOLCASO
                       OPE                tag:

 OpenMolcas is free software; you can redistribute it and/or modify it
 under the terms of the GNU Lesser General Public License version 2.1.
 OpenMolcas is distributed in the hope that it will be useful, but it
 is provided "as is" and without any express or implied warranties.
 For more details see the full text of the license in the file
 LICENSE or in <http://www.gnu.org/licenses/>.

                 Copyright (C) The OpenMolcas Authors
           For the author list and the recommended citation,
                   consult the file CONTRIBUTORS.md

           *************************************************
           * pymolcas version py2.05                       *
           *   build c53fbf9a0f911de0c7c16766b0715e61      *
           *   (after the EMIL interpreter by V. Veryazov) *
           *************************************************

configuration info
------------------
C Compiler ID: GNU
C flags: -std=gnu99
Fortran Compiler ID: Intel
Fortran flags: -fpp -i8 -r8 -heap-arrays
Definitions: _MOLCAS_;_I8_;_LINUX_
Parallel: OFF (GA=OFF)


   ------------------------------------------------------------------------------------------------
  |
  |              Project: ozone_145.25
  |       Submitted from: /lustre/isaac/scratch/gjones39/scpfiles/ANO-RCC-VTZP/ozone_145.25
  |         Scratch area: /lustre/isaac/scratch/gjones39/scpfiles/ANO-RCC-VTZP/ozone_145.25/3252816
  |      Save outputs to: /lustre/isaac/scratch/gjones39/scpfiles/ANO-RCC-VTZP/ozone_145.25
  |               Molcas: /lustre/isaac/proj/UTK0022/Grier2025/Test/build
  |
  | Scratch area is empty
  |
  |       MOLCAS_DRIVER = /nfs/home/gjones39/bin/pymolcas
  | MOLCAS_KEEP_WORKDIR = NO
  |      MOLCAS_MAXITER = 100
  |  MOLCAS_NEW_WORKDIR = YES
  |       MOLCAS_NPROCS = 1
  |       MOLCAS_SOURCE = /lustre/isaac/proj/UTK0022/Grier2025/Test
  |    MOLCAS_STRUCTURE = 0
  |
   ------------------------------------------------------------------------------------------------

++ ---------   Input file   ---------

&GATEWAY
coord=ozone_145.25.xyz
Basis = ANO-RCC-VTZP
Group = nosymm
End of Input

&SEWARD
End of Input

&SCF
FileOrb
/lustre/isaac/scratch/gjones39/scpfiles/ANO-RCC-VTZP/ozone_145.00/ozone_145.00.ScfOrb

>>> COPY $WorkDir/ozone_145.25.scf.h5 $CurrDir/

&RASSCF
Title= RASSCF
ITERation
200 100
CIMX
200
SDAV
500
FileOrb
/lustre/isaac/scratch/gjones39/scpfiles/ANO-RCC-VTZP/ozone_145.00/ozone_145.00.RasOrb
CIROOT
3 3 1
NACTEL
12 0 0
Inactive
6
RAS2
9
Symmetry
1
Spin
1
orblisting
all

>>> COPY $WorkDir/ozone_145.25.rasscf.h5 $CurrDir/

>>> COPY $WorkDir/GMJ_Fock_MO.csv $CurrDir/ozone_145.25.GMJ_Fock_MO.csv

&MOTRA
Frozen=0
LUMORB

>>> COPY $WorkDir/GMJ_one_int_indx.csv $CurrDir/ozone_145.25.GMJ_one_int_indx.csv

>>> COPY $WorkDir/GMJ_one_int.csv $CurrDir/ozone_145.25.GMJ_one_int.csv

>>> COPY $WorkDir/GMJ_two_int_indx.csv $CurrDir/ozone_145.25.GMJ_two_int_indx.csv

>>> COPY $WorkDir/GMJ_two_int.csv $CurrDir/ozone_145.25.GMJ_two_int.csv

&CASPT2

Multistate
ALL

Frozen
0

MAXITER
50

>>> FOREACH k IN (1,2,3)

  >>> FOREACH i IN (B,E,F,G,H)

    >>> FOREACH j IN (P,M)

      >>> IF (-FILE GMJ_e2_${i}_${j}_${k}_.csv)

        >>> COPY $WorkDir/GMJ_RHS_${i}_${j}_${k}_.csv $CurrDir/GMJ_RHS_${i}_${j}_${k}_.csv

        >>> COPY $WorkDir/GMJ_IVECW_${i}_${j}_${k}_.csv $CurrDir/GMJ_IVECW_${i}_${j}_${k}_.csv

        >>> COPY $WorkDir/GMJ_IVECX_${i}_${j}_${k}_.csv $CurrDir/GMJ_IVECX_${i}_${j}_${k}_.csv

        >>> COPY $WorkDir/GMJ_IVECC2_${i}_${j}_${k}_.csv $CurrDir/GMJ_IVECC2_${i}_${j}_${k}_.csv

        >>> COPY $WorkDir/GMJ_e2_${i}_${j}_${k}_.csv $CurrDir/GMJ_e2_${i}_${j}_${k}_.csv

      >>> END IF

    >>> END FOREACH

  >>> END FOREACH

>>> END FOREACH

>>> FOREACH j IN (1,2,3)

  >>> FOREACH i IN (A,C,D)

    >>> IF (-FILE GMJ_e2_${i}_${j}_.csv)

      >>> COPY $WorkDir/GMJ_RHS_${i}_${j}_.csv $CurrDir/GMJ_RHS_${i}_${j}_.csv

      >>> COPY $WorkDir/GMJ_IVECW_${i}_${j}_.csv $CurrDir/GMJ_IVECW_${i}_${j}_.csv

      >>> COPY $WorkDir/GMJ_IVECX_${i}_${j}_.csv $CurrDir/GMJ_IVECX_${i}_${j}_.csv

      >>> COPY $WorkDir/GMJ_IVECC2_${i}_${j}_.csv $CurrDir/GMJ_IVECC2_${i}_${j}_.csv

      >>> COPY $WorkDir/GMJ_e2_${i}_${j}_.csv $CurrDir/GMJ_e2_${i}_${j}_.csv

    >>> END IF

  >>> END FOREACH

>>> END FOREACH

-- ----------------------------------

--- Start Module: gateway at Mon May 12 23:54:31 2025 ---
 
()()()()()()()()()()()()()()()()()()()()()()()()()()()()()()()()()()()()()()()()()()()()()()()()()()

                                              &GATEWAY

                                   only a single process is used
                       available to each process: 62 GB of memory, 1 thread?
()()()()()()()()()()()()()()()()()()()()()()()()()()()()()()()()()()()()()()()()()()()()()()()()()()
 
 
++    Symmetry information:
      ---------------------
 
                    Character Table for C1 
 
                             E  
                    a        1  x, y, xy, Rz, z, xz, Ry, yz, Rx, I
--
 
 
++    Basis set information:
      ----------------------
 
 
      Basis set label: O.ANO-RCC...4S3P2D1F.
 
      Electronic valence basis set:
      ------------------
      Associated Effective Charge   8.000000 au
      Associated Actual Charge      8.000000 au
      Nuclear Model: Point charge
 
      Shell  nPrim  nBasis  Cartesian Spherical Contaminant
         s      14       4        X                  
         p       9       3        X                  
         d       4       2                 X         
         f       3       1                 X         
--
 
 
++    Molecular structure info:
      -------------------------
 
                    ************************************************ 
                    **** Cartesian Coordinates / Bohr, Angstrom **** 
                    ************************************************ 
 
     Center  Label                x              y              z                     x              y              z
        1      O1               0.721199       2.304872       0.000000              0.381642       1.219686       0.000000
        2      O2               0.000000       0.000000       0.000000              0.000000       0.000000       0.000000
        3      O3               0.721199      -2.304872       0.000000              0.381642      -1.219686       0.000000
 
                    *************************************** 
                    *    InterNuclear Distances / Bohr    * 
                    *************************************** 
 
               1 O1            2 O2            3 O3    
    1 O1       0.000000
    2 O2       2.415070        0.000000
    3 O3       4.609745        2.415070        0.000000
 
                    ******************************************* 
                    *    InterNuclear Distances / Angstrom    * 
                    ******************************************* 
 
               1 O1            2 O2            3 O3    
    1 O1       0.000000
    2 O2       1.278000        0.000000
    3 O3       2.439372        1.278000        0.000000
 
                    ************************************** 
                    *    Valence Bond Angles / Degree    * 
                    ************************************** 
                          Atom centers                 Phi
                      1 O1       2 O2       3 O3       145.25
--
 
 
            Nuclear Potential Energy             66.88415671 au
 
--- Stop Module: gateway at Mon May 12 23:54:35 2025 /rc=_RC_ALL_IS_WELL_ ---
*** files: xmldump
    saved to directory /lustre/isaac/scratch/gjones39/scpfiles/ANO-RCC-VTZP/ozone_145.25
--- Module gateway spent 3 seconds ---

--- Start Module: seward at Mon May 12 23:54:35 2025 ---
 
()()()()()()()()()()()()()()()()()()()()()()()()()()()()()()()()()()()()()()()()()()()()()()()()()()

                                              &SEWARD

                                   only a single process is used
                       available to each process: 62 GB of memory, 1 thread?
()()()()()()()()()()()()()()()()()()()()()()()()()()()()()()()()()()()()()()()()()()()()()()()()()()
 
               SEWARD will generate:
                  Multipole Moment integrals up to order  2
                  Kinetic Energy integrals
                  Nuclear Attraction integrals (point charge)
                  One-Electron Hamiltonian integrals
                  Velocity integrals
                  Relativistic Douglas-Kroll-Hess integrals:
                    - Parametrization         : EXP
                    - DKH order of Hamiltonian: 2
                    - DKH order of Properties : 0
                         - multipole moment operators
                         - electric potential operators
                         - contact operators
                  Atomic mean-field integrals
                  Two-Electron Repulsion integrals
 
                   Integrals are discarded if absolute value <: 0.10E-13
                   Integral cutoff threshold is set to       <: 0.10E-15
 
            Nuclear Potential Energy             66.88415671 au
 
 
      Basis set specifications :
      Symmetry species         a  
      Basis functions           90
 
 
  Input file to MOLDEN was generated!
 
--- Stop Module: seward at Mon May 12 23:54:44 2025 /rc=_RC_ALL_IS_WELL_ ---
*** files: ozone_145.25.GssOrb ozone_145.25.guessorb.h5 ozone_145.25.guessorb.molden xmldump
    saved to directory /lustre/isaac/scratch/gjones39/scpfiles/ANO-RCC-VTZP/ozone_145.25
--- Module seward spent 9 seconds ---

*** symbolic link created: INPORB -> ozone_145.25.GssOrb
--- Start Module: scf at Mon May 12 23:54:44 2025 ---
 
()()()()()()()()()()()()()()()()()()()()()()()()()()()()()()()()()()()()()()()()()()()()()()()()()()

                                                &SCF

                                   only a single process is used
                       available to each process: 62 GB of memory, 1 thread?
()()()()()()()()()()()()()()()()()()()()()()()()()()()()()()()()()()()()()()()()()()()()()()()()()()
 
++    Input section:
      --------------
 
      Header of the integral files:
      
       Integrals generated by seward 4.2.0  , Mon May 12 23:54:35 2025
 
 
      Cartesian coordinates in Angstrom:
      -----------------------------------------------------
      No.  Label        X            Y            Z        
      -----------------------------------------------------
       1   O1         0.38164200   1.21968600   0.00000000
       2   O2         0.00000000   0.00000000   0.00000000
       3   O3         0.38164200  -1.21968600   0.00000000
      -----------------------------------------------------
      Nuclear repulsion energy =   66.88415671
--
 
++    Orbital specifications:
      -----------------------
 
      Symmetry species               1
                                     a
      Frozen orbitals                0
      Occupied orbitals             12
      Secondary orbitals            78
      Deleted orbitals               0
      Total number of orbitals      90
      Number of basis functions     90
--
 
      Molecular charge                           0.000
 
++    Optimization specifications:
      ----------------------------
 
      SCF Algorithm: Conventional
      Minimized density differences are used
      Number of density matrices in core                5
      Maximum number of NDDO SCF iterations           400
      Maximum number of HF SCF iterations             400
      Threshold for SCF energy change            0.10E-08
      Threshold for density matrix               0.10E-03
      Threshold for Fock matrix                  0.15E-03
      Threshold for linear dependence            0.10E-08
      Threshold at which DIIS is turned on       0.15E+00
      Threshold at which QNR/C2DIIS is turned on 0.75E-01
      Threshold for Norm(delta) (QNR/C2DIIS)     0.20E-04
      DIIS extrapolation of the SCF procedure
      All orbitals punched on: SCFORB
--
 
      Input vectors read from INPORB
      Orbital file label: * SCF orbitals
 
 
++ Convergence information
                                   SCF        iterations: Energy and convergence statistics
 
Iter     Tot. SCF        One-elec.       Two-elec.     Energy      Max Dij or  Max Fij      DNorm      TNorm      AccCon     Time
         Energy          Energy          Energy        Change      Delta Norm                                                in Sec.
   1  -224.471703192  -441.407227591   150.051367684   0.00E+00    0.11E-02*   0.62E-03*    0.75E+01   0.11E+03   None         0.
   2  -224.471708584  -441.406870625   150.051005326  -0.54E-05*   0.61E-03*   0.31E-03*    0.70E-02   0.11E+03   EDIIS        0.
   3  -224.471709546  -441.407578519   150.051712260  -0.96E-06*   0.29E-03*   0.25E-03*    0.89E-03   0.11E+03   c2DIIS       0.
   4  -224.471709878  -441.407085021   150.051218430  -0.33E-06*   0.14E-03*   0.58E-04     0.95E-03   0.11E+03   QNRc2DIIS    0.
   5  -224.471709890  -441.407889839   150.052023235  -0.13E-07*   0.76E-04*   0.82E-04     0.57E-03   0.11E+03   QNRc2DIIS    0.
   6  -224.471709918  -441.407537867   150.051671236  -0.27E-07*   0.72E-04*   0.13E-04     0.59E-04   0.11E+03   QNRc2DIIS    0.
   7  -224.471709922  -441.407440561   150.051573925  -0.38E-08*   0.66E-05    0.14E-05     0.60E-04   0.11E+03   QNRc2DIIS    0.
   8  -224.471709922  -441.407493135   150.051626499  -0.27E-10    0.24E-05    0.16E-05     0.31E-03   0.11E+03   QNRc2DIIS    0.
 
       Convergence after  8 Macro Iterations
--
 
 *****************************************************************************************************************************
 *                                                                                                                           *
 *                                             SCF/KS-DFT Program, Final results                                             *
 *                                                                                                                           *
 *                                                                                                                           *
 *                                                                                                                           *
 *                                                       Final Results                                                       *
 *                                                                                                                           *
 *****************************************************************************************************************************
 
::    Total SCF energy                               -224.4717099216
      One-electron energy                            -441.4074931347
      Two-electron energy                             150.0516264993
      Nuclear repulsion energy                         66.8841567138
      Kinetic energy (interpolated)                   225.0983619694
      Virial theorem                                    0.9972160968
      Total spin, S(S+1)                                0.0000000000
      Total spin, S                                     0.0000000000
      Max non-diagonal density matrix element           0.0000034517
      Max non-diagonal Fock matrix element              0.0000007738
 
 
      All orbitals with orbital energies smaller than  E(LUMO)+0.5 are printed
 
++    Molecular orbitals:
      -------------------
 
      Title: SCF orbitals

      Molecular orbitals for symmetry species 1: a  
 
          Orbital            1         2         3         4         5         6         7         8         9        10    
          Energy          -20.9055  -20.7381  -20.7381   -1.7242   -1.4604   -1.0744   -0.8324   -0.8011   -0.7669   -0.5971
          Occ. No.          2.0000    2.0000    2.0000    2.0000    2.0000    2.0000    2.0000    2.0000    2.0000    2.0000
 
        1 O1     1s         0.0023   -0.7770    0.6276   -0.0129    0.0123    0.0127   -0.0074   -0.0237    0.0000    0.0076
        2 O1     2s         0.0022    0.0061   -0.0050    0.3414   -0.5610    0.6348   -0.1607   -0.4355    0.0000    0.0817
        3 O1     3s         0.0013    0.0043   -0.0035   -0.0087    0.0205    0.0211   -0.0119   -0.0519   -0.0000    0.0166
        4 O1     4s         0.0002    0.0009   -0.0007   -0.0002    0.0040    0.0035   -0.0025   -0.0109   -0.0000    0.0038
        5 O1     2px       -0.0004   -0.0010    0.0007   -0.0292    0.0402    0.0771    0.2786   -0.2491   -0.0000   -0.6338
        6 O1     3px       -0.0004   -0.0010    0.0005    0.0103   -0.0058   -0.0132   -0.0184    0.0212   -0.0000    0.0000
        7 O1     4px       -0.0002    0.0003   -0.0004    0.0022    0.0005    0.0004   -0.0009    0.0009   -0.0000    0.0050
        8 O1     2py       -0.0015   -0.0026    0.0025   -0.1149    0.0848    0.1452   -0.2297   -0.3412    0.0000    0.3064
        9 O1     3py       -0.0008   -0.0026    0.0025    0.0126   -0.0182   -0.0240    0.0205    0.0448    0.0000   -0.0056
       10 O1     4py        0.0003    0.0017   -0.0014    0.0010   -0.0036    0.0009    0.0034    0.0038    0.0000   -0.0026
       11 O1     2pz        0.0000    0.0000    0.0000   -0.0000   -0.0000   -0.0000    0.0000   -0.0000    0.4002   -0.0000
       12 O1     3pz       -0.0000    0.0000    0.0000   -0.0000   -0.0000    0.0000   -0.0000   -0.0000   -0.0158    0.0000
       13 O1     4pz       -0.0000    0.0000    0.0000   -0.0000    0.0000    0.0000   -0.0000   -0.0000   -0.0067    0.0000
       14 O1     3d2-       0.0001    0.0007   -0.0006    0.0091   -0.0098   -0.0094   -0.0125    0.0188    0.0000    0.0081
       15 O1     4d2-       0.0000    0.0004   -0.0003    0.0005   -0.0011   -0.0005   -0.0012    0.0013    0.0000    0.0013
       16 O1     3d1-      -0.0000   -0.0000   -0.0000    0.0000    0.0000    0.0000   -0.0000    0.0000   -0.0310    0.0000
       17 O1     4d1-       0.0000   -0.0000   -0.0000    0.0000    0.0000   -0.0000    0.0000    0.0000   -0.0053   -0.0000
       18 O1     3d0       -0.0002   -0.0006    0.0005   -0.0104    0.0090    0.0058   -0.0070   -0.0146   -0.0000    0.0054
       19 O1     4d0       -0.0001   -0.0004    0.0004   -0.0008    0.0008    0.0001   -0.0008   -0.0008   -0.0000    0.0008
       20 O1     3d1+       0.0000   -0.0000   -0.0000    0.0000   -0.0000   -0.0000    0.0000    0.0000   -0.0089   -0.0000
       21 O1     4d1+      -0.0000   -0.0000   -0.0000   -0.0000   -0.0000    0.0000    0.0000   -0.0000   -0.0017    0.0000
       22 O1     3d2+      -0.0004   -0.0011    0.0010   -0.0179    0.0126    0.0111   -0.0218   -0.0215   -0.0000    0.0158
       23 O1     4d2+      -0.0002   -0.0005    0.0005   -0.0026    0.0016    0.0013   -0.0023   -0.0016   -0.0000    0.0023
       24 O1     4f3-       0.0001    0.0002   -0.0001    0.0040   -0.0034   -0.0012    0.0068    0.0035   -0.0000   -0.0053
       25 O1     4f2-       0.0000   -0.0000    0.0000   -0.0000   -0.0000   -0.0000   -0.0000   -0.0000    0.0034    0.0000
       26 O1     4f1-       0.0000    0.0002   -0.0001    0.0033   -0.0030   -0.0015    0.0018    0.0037   -0.0000   -0.0012
       27 O1     4f0        0.0000   -0.0000   -0.0000    0.0000    0.0000    0.0000   -0.0000    0.0000   -0.0037   -0.0000
       28 O1     4f1+      -0.0000    0.0000   -0.0001    0.0009   -0.0008   -0.0006   -0.0002    0.0009    0.0000   -0.0009
       29 O1     4f2+       0.0000   -0.0000   -0.0000    0.0000   -0.0000   -0.0000   -0.0000    0.0000   -0.0062    0.0000
       30 O1     4f3+       0.0000    0.0002   -0.0001    0.0038   -0.0042   -0.0028   -0.0034    0.0060   -0.0000    0.0025
       31 O2     1s         0.9993    0.0001   -0.0010   -0.0280   -0.0000   -0.0160   -0.0059   -0.0000    0.0000   -0.0000
       32 O2     2s        -0.0045   -0.0012    0.0116    0.6236    0.0000   -0.6408   -0.0626   -0.0000    0.0000   -0.0000
       33 O2     3s        -0.0033   -0.0007    0.0067   -0.0694   -0.0000   -0.0190   -0.0104   -0.0000    0.0000   -0.0000
       34 O2     4s        -0.0007   -0.0001    0.0011   -0.0128   -0.0000   -0.0044   -0.0039   -0.0000    0.0000   -0.0000
       35 O2     2px       -0.0001   -0.0003    0.0024    0.0675    0.0000    0.1575    0.7062   -0.0000   -0.0000    0.0000
       36 O2     3px       -0.0009   -0.0002    0.0016   -0.0299   -0.0000   -0.0202   -0.0747    0.0000    0.0000   -0.0000
       37 O2     4px        0.0014    0.0001   -0.0005   -0.0041   -0.0000    0.0015   -0.0100    0.0000    0.0000   -0.0000
       38 O2     2py        0.0000   -0.0066   -0.0007    0.0000   -0.3354   -0.0000    0.0000    0.5470    0.0000   -0.1394
       39 O2     3py       -0.0000   -0.0044   -0.0005   -0.0000    0.0651    0.0000   -0.0000   -0.0556   -0.0000   -0.0060
       40 O2     4py        0.0000    0.0012    0.0001    0.0000   -0.0016    0.0000   -0.0000   -0.0099    0.0000    0.0005
       41 O2     2pz        0.0000   -0.0000   -0.0000    0.0000    0.0000   -0.0000    0.0000   -0.0000    0.6579    0.0000
       42 O2     3pz        0.0000    0.0000    0.0000    0.0000    0.0000    0.0000    0.0000   -0.0000   -0.0449    0.0000
       43 O2     4pz       -0.0000    0.0000    0.0000    0.0000    0.0000    0.0000    0.0000   -0.0000   -0.0176    0.0000
       44 O2     3d2-      -0.0000   -0.0011   -0.0001    0.0000   -0.0295   -0.0000    0.0000    0.0205    0.0000   -0.0444
       45 O2     4d2-      -0.0000   -0.0005   -0.0001    0.0000   -0.0032   -0.0000    0.0000    0.0018    0.0000   -0.0075
       46 O2     3d1-       0.0000   -0.0000   -0.0000    0.0000    0.0000   -0.0000    0.0000    0.0000    0.0000   -0.0000
       47 O2     4d1-       0.0000   -0.0000   -0.0000    0.0000    0.0000   -0.0000   -0.0000    0.0000    0.0000   -0.0000
       48 O2     3d0        0.0002    0.0001   -0.0011   -0.0147   -0.0000   -0.0035   -0.0126    0.0000   -0.0000   -0.0000
       49 O2     4d0        0.0004    0.0001   -0.0006    0.0007    0.0000    0.0001   -0.0009    0.0000   -0.0000   -0.0000
       50 O2     3d1+      -0.0000   -0.0000   -0.0000   -0.0000   -0.0000   -0.0000   -0.0000   -0.0000    0.0234    0.0000
       51 O2     4d1+       0.0000   -0.0000    0.0000   -0.0000   -0.0000    0.0000   -0.0000    0.0000    0.0034    0.0000
       52 O2     3d2+       0.0006    0.0002   -0.0015   -0.0208   -0.0000   -0.0038    0.0137   -0.0000    0.0000   -0.0000
       53 O2     4d2+       0.0003    0.0001   -0.0007   -0.0015   -0.0000   -0.0005    0.0007   -0.0000    0.0000   -0.0000
       54 O2     4f3-       0.0000    0.0001    0.0000   -0.0000    0.0065    0.0000   -0.0000   -0.0076   -0.0000   -0.0065
       55 O2     4f2-       0.0000   -0.0000   -0.0000   -0.0000   -0.0000    0.0000    0.0000    0.0000    0.0000   -0.0000
       56 O2     4f1-       0.0000    0.0001    0.0000   -0.0000    0.0054    0.0000   -0.0000   -0.0046    0.0000    0.0010
       57 O2     4f0        0.0000    0.0000    0.0000    0.0000    0.0000    0.0000   -0.0000   -0.0000   -0.0058    0.0000
       58 O2     4f1+       0.0001    0.0000   -0.0001   -0.0018   -0.0000    0.0001   -0.0009    0.0000    0.0000    0.0000
       59 O2     4f2+       0.0000    0.0000   -0.0000    0.0000    0.0000    0.0000   -0.0000   -0.0000   -0.0092   -0.0000
       60 O2     4f3+       0.0001    0.0000   -0.0002   -0.0084   -0.0000   -0.0012   -0.0090    0.0000   -0.0000   -0.0000
       61 O3     1s         0.0023    0.6276    0.7770   -0.0129   -0.0123    0.0127   -0.0074    0.0237    0.0000   -0.0076
       62 O3     2s         0.0022   -0.0049   -0.0062    0.3414    0.5610    0.6348   -0.1607    0.4355    0.0000   -0.0817
       63 O3     3s         0.0013   -0.0035   -0.0043   -0.0087   -0.0205    0.0211   -0.0119    0.0519    0.0000   -0.0167
       64 O3     4s         0.0002   -0.0008   -0.0008   -0.0002   -0.0040    0.0035   -0.0025    0.0109    0.0000   -0.0038
       65 O3     2px       -0.0004    0.0008    0.0009   -0.0292   -0.0402    0.0771    0.2786    0.2491    0.0000    0.6337
       66 O3     3px       -0.0004    0.0008    0.0007    0.0103    0.0058   -0.0132   -0.0184   -0.0212    0.0000   -0.0000
       67 O3     4px       -0.0002   -0.0002   -0.0005    0.0022   -0.0005    0.0004   -0.0009   -0.0009    0.0000   -0.0050
       68 O3     2py        0.0015   -0.0020   -0.0030    0.1149    0.0848   -0.1452    0.2297   -0.3413   -0.0000    0.3064
       69 O3     3py        0.0008   -0.0020   -0.0029   -0.0126   -0.0182    0.0240   -0.0205    0.0448    0.0000   -0.0056
       70 O3     4py       -0.0003    0.0014    0.0017   -0.0010   -0.0036   -0.0009   -0.0034    0.0038    0.0000   -0.0026
       71 O3     2pz        0.0000   -0.0000   -0.0000   -0.0000   -0.0000   -0.0000    0.0000   -0.0000    0.4002    0.0000
       72 O3     3pz        0.0000   -0.0000   -0.0000   -0.0000   -0.0000    0.0000   -0.0000    0.0000   -0.0158   -0.0000
       73 O3     4pz        0.0000   -0.0000   -0.0000   -0.0000   -0.0000   -0.0000   -0.0000    0.0000   -0.0067    0.0000
       74 O3     3d2-      -0.0001    0.0005    0.0007   -0.0091   -0.0098    0.0094    0.0125    0.0188    0.0000    0.0081
       75 O3     4d2-      -0.0000    0.0003    0.0004   -0.0005   -0.0011    0.0005    0.0012    0.0013    0.0000    0.0013
       76 O3     3d1-       0.0000   -0.0000   -0.0000   -0.0000   -0.0000   -0.0000    0.0000   -0.0000    0.0310   -0.0000
       77 O3     4d1-       0.0000   -0.0000    0.0000   -0.0000   -0.0000   -0.0000   -0.0000   -0.0000    0.0053   -0.0000
       78 O3     3d0       -0.0002    0.0004    0.0006   -0.0104   -0.0090    0.0058   -0.0070    0.0146    0.0000   -0.0054
       79 O3     4d0       -0.0001    0.0003    0.0005   -0.0008   -0.0008    0.0001   -0.0008    0.0008    0.0000   -0.0008
       80 O3     3d1+      -0.0000    0.0000    0.0000   -0.0000   -0.0000    0.0000   -0.0000   -0.0000   -0.0089    0.0000
       81 O3     4d1+      -0.0000    0.0000    0.0000   -0.0000    0.0000    0.0000   -0.0000   -0.0000   -0.0017    0.0000
       82 O3     3d2+      -0.0004    0.0009    0.0012   -0.0179   -0.0126    0.0111   -0.0218    0.0215    0.0000   -0.0158
       83 O3     4d2+      -0.0002    0.0004    0.0006   -0.0026   -0.0016    0.0013   -0.0023    0.0016    0.0000   -0.0023
       84 O3     4f3-      -0.0001    0.0001    0.0001   -0.0040   -0.0034    0.0012   -0.0068    0.0035    0.0000   -0.0053
       85 O3     4f2-      -0.0000    0.0000    0.0000   -0.0000    0.0000   -0.0000   -0.0000    0.0000   -0.0034   -0.0000
       86 O3     4f1-      -0.0000    0.0001    0.0002   -0.0033   -0.0030    0.0015   -0.0018    0.0037    0.0000   -0.0012
       87 O3     4f0       -0.0000   -0.0000    0.0000   -0.0000   -0.0000   -0.0000   -0.0000    0.0000   -0.0037    0.0000
       88 O3     4f1+      -0.0000   -0.0000   -0.0001    0.0009    0.0008   -0.0006   -0.0002   -0.0009    0.0000    0.0009
       89 O3     4f2+       0.0000    0.0000   -0.0000   -0.0000   -0.0000    0.0000   -0.0000    0.0000   -0.0062   -0.0000
       90 O3     4f3+       0.0000   -0.0001   -0.0002    0.0038    0.0042   -0.0028   -0.0034   -0.0060    0.0000   -0.0025
 
          Orbital           11        12        13        14        15        16        17        18        19        20    
          Energy           -0.5089   -0.5051   -0.0377    0.1713    0.1723    0.2328    0.2349    0.3067    0.3578    0.3722
          Occ. No.          2.0000    2.0000    0.0000    0.0000    0.0000    0.0000    0.0000    0.0000    0.0000    0.0000
 
        1 O1     1s         0.0026    0.0000    0.0000   -0.2150    0.0918   -0.0492   -0.0000    0.0791   -0.0175   -0.0000
        2 O1     2s         0.0057   -0.0000    0.0000   -1.5670    0.7668   -0.2924   -0.0000    0.4970   -0.0582   -0.0000
        3 O1     3s         0.0143    0.0000    0.0000   -0.9249    0.3137   -0.2727   -0.0000    0.5518   -0.0262   -0.0000
        4 O1     4s         0.0047    0.0000    0.0000   -0.2086    0.0543   -0.0684   -0.0000    0.1497   -0.0003   -0.0000
        5 O1     2px        0.6679    0.0000    0.0000    0.2957   -0.0812   -0.0173   -0.0000   -0.1183   -0.1885   -0.0000
        6 O1     3px        0.0247    0.0000   -0.0000    0.3047   -0.1072    0.3847    0.0000    0.1094   -0.8121   -0.0000
        7 O1     4px       -0.0025   -0.0000   -0.0000    0.0388   -0.0215    0.1739    0.0000    0.0904   -0.3235   -0.0000
        8 O1     2py        0.0377    0.0000   -0.0000    0.6128   -0.9719   -0.0009   -0.0000   -0.2547   -0.1969   -0.0000
        9 O1     3py       -0.0137    0.0000   -0.0000    0.7660   -0.6173    0.1702    0.0000   -0.9004   -0.1326   -0.0000
       10 O1     4py       -0.0025   -0.0000   -0.0000    0.1054   -0.0887   -0.0044   -0.0000   -0.2173   -0.0262   -0.0000
       11 O1     2pz        0.0000   -0.6973    0.6688    0.0000   -0.0000    0.0000   -0.1300   -0.0000    0.0000   -0.1548
       12 O1     3pz        0.0000   -0.0285    0.1692    0.0000    0.0000   -0.0000    0.3627   -0.0000    0.0000   -0.8897
       13 O1     4pz       -0.0000    0.0070    0.0269    0.0000    0.0000   -0.0000    0.2008   -0.0000    0.0000   -0.3582
       14 O1     3d2-      -0.0056   -0.0000    0.0000   -0.0540    0.0286   -0.0141   -0.0000    0.0225    0.0064    0.0000
       15 O1     4d2-      -0.0008   -0.0000    0.0000   -0.0362    0.0165   -0.0121   -0.0000    0.0162    0.0150    0.0000
       16 O1     3d1-      -0.0000    0.0249    0.0118   -0.0000    0.0000   -0.0000    0.0078    0.0000   -0.0000    0.0066
       17 O1     4d1-      -0.0000    0.0059    0.0010   -0.0000   -0.0000    0.0000   -0.0000   -0.0000   -0.0000    0.0121
       18 O1     3d0        0.0043    0.0000   -0.0000    0.0519   -0.0253    0.0289    0.0000   -0.0509   -0.0070    0.0000
       19 O1     4d0        0.0003    0.0000   -0.0000    0.0328   -0.0183    0.0175    0.0000   -0.0342   -0.0095   -0.0000
       20 O1     3d1+      -0.0000    0.0066    0.0044   -0.0000    0.0000   -0.0000    0.0029   -0.0000   -0.0000    0.0116
       21 O1     4d1+      -0.0000    0.0014    0.0003    0.0000    0.0000   -0.0000    0.0002    0.0000   -0.0000    0.0096
       22 O1     3d2+       0.0071    0.0000    0.0000    0.0732   -0.0269    0.0532    0.0000   -0.0983    0.0047   -0.0000
       23 O1     4d2+      -0.0003   -0.0000    0.0000    0.0439   -0.0235    0.0293    0.0000   -0.0664   -0.0007   -0.0000
       24 O1     4f3-      -0.0007   -0.0000    0.0000   -0.0067    0.0029    0.0005    0.0000    0.0101   -0.0019   -0.0000
       25 O1     4f2-       0.0000   -0.0026   -0.0003   -0.0000   -0.0000   -0.0000    0.0011   -0.0000    0.0000   -0.0052
       26 O1     4f1-      -0.0013   -0.0000    0.0000   -0.0052    0.0036   -0.0029   -0.0000    0.0099    0.0048    0.0000
       27 O1     4f0       -0.0000    0.0018    0.0015   -0.0000   -0.0000    0.0000   -0.0019    0.0000   -0.0000    0.0060
       28 O1     4f1+       0.0008    0.0000    0.0000   -0.0009    0.0016   -0.0017   -0.0000    0.0018    0.0038    0.0000
       29 O1     4f2+      -0.0000    0.0048   -0.0005    0.0000    0.0000    0.0000   -0.0017    0.0000   -0.0000    0.0048
       30 O1     4f3+      -0.0032   -0.0000    0.0000   -0.0053    0.0050   -0.0038   -0.0000    0.0057    0.0091    0.0000
       31 O2     1s         0.0225    0.0000   -0.0000    0.0001   -0.2594    0.0969    0.0000   -0.2528   -0.0000    0.0000
       32 O2     2s         0.2680    0.0000   -0.0000    0.0007   -2.0125    0.5637    0.0000   -1.5285   -0.0000    0.0000
       33 O2     3s         0.0572    0.0000   -0.0000    0.0003   -0.9743    0.4360    0.0000   -0.9555    0.0000    0.0000
       34 O2     4s         0.0140    0.0000   -0.0000    0.0001   -0.2120    0.0867    0.0000   -0.1720    0.0000    0.0000
       35 O2     2px       -0.5921   -0.0000   -0.0000    0.0002   -0.6069   -0.0846   -0.0000   -0.1583    0.0000   -0.0000
       36 O2     3px       -0.0215   -0.0000   -0.0000    0.0001   -0.3493    0.3979    0.0000   -0.3916    0.0000   -0.0000
       37 O2     4px       -0.0030   -0.0000   -0.0000    0.0000   -0.0436    0.1693    0.0000   -0.0145    0.0000   -0.0000
       38 O2     2py       -0.0000   -0.0000    0.0000    1.5164    0.0005    0.0000   -0.0000    0.0000   -0.0708    0.0000
       39 O2     3py       -0.0000   -0.0000    0.0000    1.5400    0.0005    0.0000   -0.0000    0.0000    0.3402    0.0000
       40 O2     4py       -0.0000   -0.0000    0.0000    0.1560    0.0001    0.0000   -0.0000    0.0000    0.1654    0.0000
       41 O2     2pz        0.0000    0.0000   -0.8879   -0.0000    0.0000    0.0000   -0.0263    0.0000   -0.0000    0.0000
       42 O2     3pz       -0.0000   -0.0000   -0.1958   -0.0000   -0.0000   -0.0000    0.3080    0.0000   -0.0000    0.0000
       43 O2     4pz       -0.0000   -0.0000   -0.0209    0.0000   -0.0000   -0.0000    0.1842    0.0000   -0.0000    0.0000
       44 O2     3d2-      -0.0000    0.0000   -0.0000    0.1073    0.0000    0.0000   -0.0000   -0.0000    0.0921    0.0000
       45 O2     4d2-      -0.0000   -0.0000   -0.0000    0.0659    0.0000   -0.0000   -0.0000   -0.0000    0.0640    0.0000
       46 O2     3d1-       0.0000   -0.0615   -0.0000   -0.0000   -0.0000    0.0000   -0.0000    0.0000   -0.0000    0.1111
       47 O2     4d1-       0.0000   -0.0143   -0.0000   -0.0000   -0.0000    0.0000   -0.0000    0.0000   -0.0000    0.0670
       48 O2     3d0        0.0185    0.0000    0.0000   -0.0000    0.0102   -0.0666   -0.0000    0.1313    0.0000    0.0000
       49 O2     4d0        0.0022    0.0000    0.0000   -0.0000    0.0161   -0.0336   -0.0000    0.0603    0.0000    0.0000
       50 O2     3d1+       0.0000    0.0000   -0.0012    0.0000    0.0000    0.0000   -0.0196    0.0000    0.0000   -0.0000
       51 O2     4d1+       0.0000    0.0000    0.0001    0.0000    0.0000    0.0000   -0.0082    0.0000    0.0000    0.0000
       52 O2     3d2+       0.0338    0.0000    0.0000   -0.0000    0.0088   -0.1143   -0.0000    0.1289    0.0000   -0.0000
       53 O2     4d2+       0.0063    0.0000    0.0000   -0.0000    0.0210   -0.0511   -0.0000    0.0444   -0.0000   -0.0000
       54 O2     4f3-      -0.0000    0.0000   -0.0000   -0.0115   -0.0000   -0.0000    0.0000   -0.0000   -0.0017   -0.0000
       55 O2     4f2-       0.0000   -0.0061   -0.0000   -0.0000   -0.0000    0.0000   -0.0000    0.0000   -0.0000    0.0050
       56 O2     4f1-       0.0000    0.0000   -0.0000   -0.0104   -0.0000   -0.0000    0.0000    0.0000   -0.0083   -0.0000
       57 O2     4f0        0.0000   -0.0000   -0.0021    0.0000    0.0000    0.0000   -0.0014    0.0000    0.0000   -0.0000
       58 O2     4f1+      -0.0012   -0.0000   -0.0000    0.0000   -0.0003   -0.0034   -0.0000    0.0052   -0.0000    0.0000
       59 O2     4f2+      -0.0000   -0.0000    0.0013    0.0000    0.0000    0.0000   -0.0020    0.0000    0.0000   -0.0000
       60 O2     4f3+       0.0031    0.0000    0.0000   -0.0000    0.0026   -0.0087   -0.0000    0.0104   -0.0000    0.0000
       61 O3     1s         0.0026   -0.0000    0.0000    0.2149    0.0920   -0.0492   -0.0000    0.0791    0.0175    0.0000
       62 O3     2s         0.0057   -0.0000    0.0000    1.5665    0.7678   -0.2924   -0.0000    0.4970    0.0582    0.0000
       63 O3     3s         0.0143   -0.0000    0.0000    0.9247    0.3143   -0.2727   -0.0000    0.5518    0.0262    0.0000
       64 O3     4s         0.0047   -0.0000    0.0000    0.2085    0.0544   -0.0684   -0.0000    0.1497    0.0003    0.0000
       65 O3     2px        0.6679    0.0000    0.0000   -0.2957   -0.0813   -0.0173    0.0000   -0.1183    0.1885    0.0000
       66 O3     3px        0.0247    0.0000    0.0000   -0.3046   -0.1074    0.3847    0.0000    0.1094    0.8121    0.0000
       67 O3     4px       -0.0025   -0.0000    0.0000   -0.0388   -0.0215    0.1739    0.0000    0.0904    0.3235    0.0000
       68 O3     2py       -0.0377   -0.0000    0.0000    0.6122    0.9723    0.0009   -0.0000    0.2547   -0.1969   -0.0000
       69 O3     3py        0.0137    0.0000    0.0000    0.7656    0.6178   -0.1702   -0.0000    0.9004   -0.1326   -0.0000
       70 O3     4py        0.0025    0.0000    0.0000    0.1054    0.0888    0.0044   -0.0000    0.2173   -0.0262   -0.0000
       71 O3     2pz       -0.0000    0.6973    0.6688    0.0000    0.0000    0.0000   -0.1300   -0.0000   -0.0000    0.1548
       72 O3     3pz       -0.0000    0.0285    0.1692    0.0000    0.0000   -0.0000    0.3627    0.0000   -0.0000    0.8897
       73 O3     4pz        0.0000   -0.0070    0.0269    0.0000    0.0000   -0.0000    0.2008    0.0000   -0.0000    0.3582
       74 O3     3d2-       0.0056    0.0000    0.0000   -0.0540   -0.0286    0.0141    0.0000   -0.0225    0.0064    0.0000
       75 O3     4d2-       0.0008    0.0000    0.0000   -0.0362   -0.0165    0.0121    0.0000   -0.0162    0.0150    0.0000
       76 O3     3d1-      -0.0000    0.0249   -0.0118   -0.0000    0.0000    0.0000   -0.0078    0.0000   -0.0000    0.0066
       77 O3     4d1-      -0.0000    0.0059   -0.0010   -0.0000    0.0000    0.0000    0.0000    0.0000   -0.0000    0.0121
       78 O3     3d0        0.0043    0.0000   -0.0000   -0.0519   -0.0253    0.0289    0.0000   -0.0509    0.0070    0.0000
       79 O3     4d0        0.0003    0.0000   -0.0000   -0.0328   -0.0184    0.0175    0.0000   -0.0342    0.0095    0.0000
       80 O3     3d1+       0.0000   -0.0066    0.0044    0.0000   -0.0000   -0.0000    0.0029   -0.0000    0.0000   -0.0116
       81 O3     4d1+       0.0000   -0.0014    0.0003   -0.0000   -0.0000   -0.0000    0.0002   -0.0000    0.0000   -0.0096
       82 O3     3d2+       0.0071    0.0000   -0.0000   -0.0732   -0.0269    0.0532    0.0000   -0.0983   -0.0047   -0.0000
       83 O3     4d2+      -0.0003    0.0000   -0.0000   -0.0439   -0.0236    0.0293    0.0000   -0.0664    0.0007   -0.0000
       84 O3     4f3-       0.0007    0.0000   -0.0000   -0.0067   -0.0029   -0.0005    0.0000   -0.0101   -0.0019   -0.0000
       85 O3     4f2-       0.0000   -0.0026    0.0003    0.0000   -0.0000    0.0000   -0.0011   -0.0000    0.0000   -0.0052
       86 O3     4f1-       0.0013    0.0000   -0.0000   -0.0052   -0.0036    0.0029    0.0000   -0.0099    0.0048    0.0000
       87 O3     4f0        0.0000   -0.0018    0.0015    0.0000   -0.0000    0.0000   -0.0019   -0.0000    0.0000   -0.0060
       88 O3     4f1+       0.0008    0.0000   -0.0000    0.0009    0.0016   -0.0017   -0.0000    0.0018   -0.0038   -0.0000
       89 O3     4f2+       0.0000   -0.0048   -0.0005    0.0000   -0.0000    0.0000   -0.0017    0.0000    0.0000   -0.0048
       90 O3     4f3+      -0.0032   -0.0000    0.0000    0.0053    0.0050   -0.0038   -0.0000    0.0057   -0.0091   -0.0000
 
          Orbital           21    
          Energy            0.4465
          Occ. No.          0.0000
 
        1 O1     1s        -0.0420
        2 O1     2s        -0.2440
        3 O1     3s         0.2125
        4 O1     4s         0.1363
        5 O1     2px        0.1942
        6 O1     3px        0.4258
        7 O1     4px        0.1036
        8 O1     2py       -0.0146
        9 O1     3py        0.4425
       10 O1     4py        0.1094
       11 O1     2pz        0.0000
       12 O1     3pz        0.0000
       13 O1     4pz        0.0000
       14 O1     3d2-      -0.0848
       15 O1     4d2-      -0.0544
       16 O1     3d1-       0.0000
       17 O1     4d1-      -0.0000
       18 O1     3d0        0.0543
       19 O1     4d0        0.0326
       20 O1     3d1+       0.0000
       21 O1     4d1+       0.0000
       22 O1     3d2+       0.0687
       23 O1     4d2+       0.0386
       24 O1     4f3-      -0.0010
       25 O1     4f2-      -0.0000
       26 O1     4f1-      -0.0040
       27 O1     4f0       -0.0000
       28 O1     4f1+      -0.0024
       29 O1     4f2+      -0.0000
       30 O1     4f3+      -0.0073
       31 O2     1s         0.0916
       32 O2     2s         0.5399
       33 O2     3s         0.8699
       34 O2     4s         0.2637
       35 O2     2px       -0.2748
       36 O2     3px       -0.5985
       37 O2     4px       -0.2127
       38 O2     2py       -0.0000
       39 O2     3py        0.0000
       40 O2     4py        0.0000
       41 O2     2pz       -0.0000
       42 O2     3pz       -0.0000
       43 O2     4pz       -0.0000
       44 O2     3d2-       0.0000
       45 O2     4d2-       0.0000
       46 O2     3d1-       0.0000
       47 O2     4d1-       0.0000
       48 O2     3d0       -0.0301
       49 O2     4d0       -0.0069
       50 O2     3d1+       0.0000
       51 O2     4d1+       0.0000
       52 O2     3d2+      -0.0683
       53 O2     4d2+      -0.0315
       54 O2     4f3-      -0.0000
       55 O2     4f2-       0.0000
       56 O2     4f1-      -0.0000
       57 O2     4f0        0.0000
       58 O2     4f1+      -0.0000
       59 O2     4f2+       0.0000
       60 O2     4f3+      -0.0032
       61 O3     1s        -0.0420
       62 O3     2s        -0.2440
       63 O3     3s         0.2125
       64 O3     4s         0.1363
       65 O3     2px        0.1942
       66 O3     3px        0.4258
       67 O3     4px        0.1036
       68 O3     2py        0.0146
       69 O3     3py       -0.4425
       70 O3     4py       -0.1094
       71 O3     2pz        0.0000
       72 O3     3pz        0.0000
       73 O3     4pz        0.0000
       74 O3     3d2-       0.0848
       75 O3     4d2-       0.0544
       76 O3     3d1-       0.0000
       77 O3     4d1-       0.0000
       78 O3     3d0        0.0543
       79 O3     4d0        0.0326
       80 O3     3d1+       0.0000
       81 O3     4d1+       0.0000
       82 O3     3d2+       0.0687
       83 O3     4d2+       0.0386
       84 O3     4f3-       0.0010
       85 O3     4f2-      -0.0000
       86 O3     4f1-       0.0040
       87 O3     4f0       -0.0000
       88 O3     4f1+      -0.0024
       89 O3     4f2+      -0.0000
       90 O3     4f3+      -0.0073
--
 
 
++    Molecular charges:
      ------------------
 
      Mulliken charges per centre and basis function type
      ---------------------------------------------------
 
                O1      O2      O3    
      1s       1.9977  1.9987  1.9977
      2s       1.9523  1.6705  1.9523
      2px      1.9310  1.7086  1.9310
      2pz      1.4006  1.1077  1.4006
      2py      0.8546  1.0339  0.8546
      3s      -0.0048 -0.0314 -0.0048
      3px     -0.0143 -0.0298 -0.0143
      3pz     -0.0079 -0.0147 -0.0079
      3py      0.0013  0.0056  0.0013
      4s       0.0039  0.0015  0.0039
      3d2+     0.0195  0.0321  0.0195
      3d1+     0.0012  0.0043  0.0012
      3d0      0.0058  0.0070  0.0058
      3d1-     0.0139  0.0526  0.0139
      3d2-     0.0107  0.0395  0.0107
      4px      0.0005  0.0012  0.0005
      4pz      0.0012  0.0018  0.0012
      4py      0.0027  0.0039  0.0027
      4d2+     0.0013  0.0041  0.0013
      4d1+     0.0002  0.0006  0.0002
      4d0      0.0001 -0.0003  0.0001
      4d1-     0.0020  0.0133  0.0020
      4d2-     0.0005  0.0058  0.0005
      4f3+     0.0023  0.0030  0.0023
      4f2+     0.0015  0.0027  0.0015
      4f1+     0.0002  0.0003  0.0002
      4f0      0.0008  0.0016  0.0008
      4f1-     0.0011  0.0013  0.0011
      4f2-     0.0006  0.0020  0.0006
      4f3-     0.0028  0.0057  0.0028
      Total    8.1834  7.6331  8.1834
 
      N-E     -0.1834  0.3669 -0.1834
 
      Total electronic charge=   24.000000
 
      Total            charge=   -0.000000
--
 
 
  Input file to MOLDEN was generated!
 
 
++    Static properties:
      ------------------
 
 
      LoProp Charges per center
 

                   O1       O2       O3    
      Nuclear      8.0000   8.0000   8.0000
      Electronic  -8.1923  -7.6155  -8.1923
 
      Total       -0.1923   0.3845  -0.1923
--
 
 
++    Natural Bond Order analysis
      ---------------------------
      Based on LoProp computed density
      -------------------------------------------------------------------------------------
      Atom A       Atom B       Bond Order | Atom A       Atom B       Bond Order
        O1           O2             1.996  |   O2           O3             1.996
      -------------------------------------------------------------------------------------
      NBO located     11.999 core electrons.
      NBO located      3.952 lone pair electrons.
      NBO located      7.983 electrons involved in    2 bonds.
      The remaining    0.065 electrons are to be considered as diffuse
--
 
 
++    Molecular properties:
      ---------------------
 
      Charge (e):
                      =   -0.0000
      Dipole Moment (Debye):
      Origin of the operator (Ang)=    0.0000    0.0000    0.0000
                   X= -2.7228E-01               Y= -5.6104E-06               Z=  1.3251E-14           Total=  2.7228E-01
      Quadrupole Moment (Debye*Ang):
      Origin of the operator (Ang)=    0.2544    0.0000    0.0000
                  XX= -1.6216E+01              XY= -6.4201E-07              XZ=  6.2354E-14              YY= -1.6994E+01
                  YZ= -3.2207E-15              ZZ= -1.4920E+01
      In traceless form (Debye*Ang)
                  XX= -2.5977E-01              XY= -9.6301E-07              XZ=  9.3532E-14              YY= -1.4258E+00
                  YZ= -4.8310E-15              ZZ=  1.6856E+00
--
 
 
  Input file to MOLDEN was generated!
 
 ###############################################################################
 ###############################################################################
 ###                                                                         ###
 ###                                                                         ###
 ###    RunFile label nBas                                                   ###
 ###    was used       78 times                                              ###
 ###                                                                         ###
 ###                                                                         ###
 ###############################################################################
 ###############################################################################
--- Stop Module: scf at Mon May 12 23:54:46 2025 /rc=_RC_ALL_IS_WELL_ ---
*** files: ozone_145.25.LprOrb ozone_145.25.LoProp.molden ozone_145.25.scf.molden ozone_145.25.ScfOrb ozone_145.25.scf.h5 xmldump
    saved to directory /lustre/isaac/scratch/gjones39/scpfiles/ANO-RCC-VTZP/ozone_145.25
--- Module scf spent 2 seconds ---

>>> COPY /lustre/isaac/scratch/gjones39/scpfiles/ANO-RCC-VTZP/ozone_145.25/3252816/ozone_145.25.scf.h5 /lustre/isaac/scratch/gjones39/scpfiles/ANO-RCC-VTZP/ozone_145.25/

*** symbolic link created: INPORB -> ozone_145.25.ScfOrb
--- Start Module: rasscf at Mon May 12 23:54:46 2025 ---
 
()()()()()()()()()()()()()()()()()()()()()()()()()()()()()()()()()()()()()()()()()()()()()()()()()()

                                              &RASSCF

                                   only a single process is used
                       available to each process: 62 GB of memory, 1 thread?
()()()()()()()()()()()()()()()()()()()()()()()()()()()()()()()()()()()()()()()()()()()()()()()()()()
 
 
      Header of the ONEINT file:
      --------------------------
      
      Integrals generated by seward 4.2.0  , Mon May 12 23:54:35 2025
 
 
      OrdInt status: non-squared
 
 
      Cartesian coordinates in Angstrom:
      -----------------------------------------------------
      No.  Label        X            Y            Z        
      -----------------------------------------------------
       1   O1         0.38164200   1.21968600   0.00000000
       2   O2         0.00000000   0.00000000   0.00000000
       3   O3         0.38164200  -1.21968600   0.00000000
      -----------------------------------------------------
      Nuclear repulsion energy =   66.88415671
 
++    Wave function specifications:
      -----------------------------
 
      Number of closed shell electrons          12
      Number of electrons in active shells      12
      Max number of holes in RAS1 space          0
      Max nr of electrons in RAS3 space          0
      Number of inactive orbitals                6
      Number of active orbitals                  9
      Number of secondary orbitals              75
      Spin quantum number                      0.0
      State symmetry                             1
--
 
++    Orbital specifications:
      -----------------------
 
      Symmetry species                           1
                                                 a
      Frozen orbitals                            0
      Inactive orbitals                          6
      Active orbitals                            9
      RAS1 orbitals                              0
      RAS2 orbitals                              9
      RAS3 orbitals                              0
      Secondary orbitals                        75
      Deleted orbitals                           0
      Number of basis functions                 90
--
 
++    CI expansion specifications:
      ----------------------------
 
      Number of CSFs                          2520
      Number of determinants                  3570
      Number of root(s) required                 3
      Root chosen for geometry opt.              3
      CI roots used                              1     2     3
      weights                                0.333 0.333 0.333
      highest root included in the CI            3
      max. size of the explicit Hamiltonian    500
--
 
++    Optimization specifications:
      ----------------------------
 
      RASSCF algorithm: Conventional
      Maximum number of macro iterations       200
      Maximum number of SX iterations          100
      Threshold for RASSCF energy            0.100E-07
      Threshold for max MO rotation          0.100E+00
      Threshold for max BLB element          0.100E-03
      Level shift parameter                  0.500E+00
      Make Quasi-Newton update
--
 
      The MO-coefficients are taken from the file:
      /lustre/isaac/scratch/gjones39/scpfiles/ANO-RCC-VTZP/ozone_145.00/ozone_145.00.RasOrb                                           
      Title: RASSCF average (pseudo-natural) orbitals                                      
 
      Total molecular charge    0.00
 
      ************************************************************************************************************************
      *                                                                                                                      *
      *                                            Wave function control section                                             *
      *                                                                                                                      *
      ************************************************************************************************************************
 
 
                                         RASSCF iterations: Energy and convergence statistics
                                         ----------------------------------------------------
 
      Iter CI   SX   CI       RASSCF       Energy    max ROT     max BLB   max BLB  Level Ln srch  Step   QN   Walltime
          iter iter root      energy       change     param      element    value   shift minimum  type update hh:mm:ss
 Nr of preliminary CI iterations:   6
        1   1    6    0  -224.63307040    0.00E+00   0.32E-03    4  14 1  0.11E-02*  0.00   0.00    SX    NO    0:00:01
        2   1    6    0  -224.63307276   -0.24E-05* -0.18E-03    4  14 1  0.20E-03*  0.00   0.00    SX    NO    0:00:00
        3   1    5    0  -224.63307285   -0.92E-07* -0.11E-03    6  14 1 -0.60E-04   0.00   0.00    SX    NO    0:00:00
        4   7    6    0  -224.63307532   -0.25E-05*  0.19E-03    4  14 1  0.19E-03*  0.00   0.00    SX    NO    0:00:00
        5   3    5    0  -224.63307546   -0.14E-06* -0.79E-04    4  14 1  0.72E-04   0.00   1.30    QN   YES    0:00:00
        6   5    4    0  -224.63307548   -0.25E-07* -0.44E-04    6  22 1  0.14E-04   0.00   0.99    QN   YES    0:00:00
        7   1    4    0  -224.63307549   -0.19E-08  -0.12E-03    6  22 1  0.23E-04   0.00   1.37    QN   YES    0:00:00
      Convergence after  7 iterations
 
  Dmat in MO in SXCTL bf call to SXHAM                                                                                    
  mat. size =     9x    9
 
        1.9605376772229111
        0.0000000181205016      1.9478574742214299
       -0.0000000158771580     -0.0000000000191967      1.9733699010139369
        0.0006759984760424     -0.0000000250365569     -0.0000000513903936      1.6054678011789700
       -0.0000000688516982     -0.0003710195197770      0.0000000003269012     -0.0000000114642333      1.7033280611636150
        0.0000000004301019     -0.0000000512549781      0.0000000434034559     -0.0000000013741929     -0.0000000319607430
        1.8095318564445240
        0.0000000524152017     -0.0000000004572102      0.0002219692524906      0.0000002161497358      0.0000000009266113
        0.0000000205637334      0.8824555593432517
        0.0015707442495825     -0.0000000616024600      0.0000000367804477      0.0017413042325421     -0.0000000073782948
       -0.0000000003195650      0.0000002853425108      0.0748981231467403
       -0.0000000245303734     -0.0000296709125394      0.0000000001278036      0.0000000155472545     -0.0021721120794372
        0.0000000261079289      0.0000000002779555     -0.0000000251587330      0.0425535462646158
        8   3    4    0  -224.63307548    0.12E-08  -0.12E-03    6  22 1 -0.32E-04   0.00   1.37    QN   YES    0:00:00
 
      ************************************************************************************************************************
                                                      Wave function printout:
                       occupation of active orbitals, and spin coupling of open shells (u,d: Spin up or down)
      ************************************************************************************************************************
 
      Note: transformation to natural orbitals
      has been made, which may change the order of the CSFs.
 
      printout of CI-coefficients larger than  0.05 for root  1
      energy=    -224.689962
      conf/sym  111111111     Coeff  Weight
             1  222222000   0.90616 0.82113
             4  222220200  -0.27925 0.07798
            10  2222udud0  -0.06187 0.00383
            12  2222uudd0  -0.06653 0.00443
            72  222u2du0d   0.05640 0.00318
            74  222u2ud0d   0.05788 0.00335
           126  22u222d00   0.06219 0.00387
           205  2u222dud0  -0.07537 0.00568
           207  2u222udd0  -0.07402 0.00548
           551  220222200  -0.07934 0.00629
           611  2ud222u0d  -0.06295 0.00396
           652  u2d222ud0   0.06670 0.00445
           731  202222002  -0.05799 0.00336
           764  ud22220ud   0.06711 0.00450
           805  022222020  -0.06779 0.00460
           992  2uu222d0d  -0.06533 0.00427
          1031  u2u222dd0   0.05455 0.00298
 
      printout of CI-coefficients larger than  0.05 for root  2
      energy=    -224.626684
      conf/sym  111111111     Coeff  Weight
             5  2222ud200   0.30426 0.09258
            11  222202ud0   0.05658 0.00320
            51  222u22d00  -0.90793 0.82434
            61  222uud2d0  -0.05196 0.00270
           202  2u222d200  -0.07120 0.00507
           208  2u22u2dd0   0.06708 0.00450
           897  2u2u2d2d0   0.05812 0.00338
          1285  2udu2220d   0.05205 0.00271
          1321  u2du222d0  -0.05059 0.00256
          1381  202u22d02   0.05976 0.00357
          1406  ud2u22dud  -0.07246 0.00525
          1442  022u22d20   0.07601 0.00578
          1485  2uud2220d   0.05989 0.00359
          1521  u2ud222d0  -0.05564 0.00310
 
      printout of CI-coefficients larger than  0.05 for root  3
      energy=    -224.582581
      conf/sym  111111111     Coeff  Weight
             3  2222u2d00  -0.83036 0.68949
            52  222u2d200   0.48098 0.23134
           277  u2222d200  -0.05729 0.00328
           281  u222d2ud0  -0.05124 0.00263
           361  222022u0d  -0.05428 0.00295
           452  2u2d22ud0   0.05031 0.00253
           466  2u2du2dud  -0.05155 0.00266
           654  u2d2u22d0  -0.05472 0.00299
           733  2022u2d02   0.05537 0.00307
           766  ud22u2dud  -0.06848 0.00469
           807  0222u2d20   0.07166 0.00514
           994  2uu2d220d   0.05270 0.00278
          1033  u2u2d22d0  -0.05293 0.00280
          1407  ud2u2d2ud   0.05164 0.00267
 
      Natural orbitals and occupation numbers for root  1
      sym 1:   1.953433   1.940289   1.958943   1.987871   1.990381   1.796654   0.246879   0.078974   0.046576
 
      Natural orbitals and occupation numbers for root  2
      sym 1:   1.963473   1.945926   1.983315   1.115680   1.865321   1.884706   1.128757   0.073146   0.039677
 
      Natural orbitals and occupation numbers for root  3
      sym 1:   1.956790   1.952773   1.982774   1.721958   1.260387   1.747236   1.266808   0.071387   0.039887
 
      ************************************************************************************************************************
      *                                                                                                                      *
      *                                                    Final results                                                     *
      *                                                                                                                      *
      ************************************************************************************************************************
 
 
++    Wave function specifications:
      -----------------------------
 
      Number of closed shell electrons          12
      Number of electrons in active shells      12
      Max number of holes in RAS1 space          0
      Max nr of electrons in RAS3 space          0
      Number of inactive orbitals                6
      Number of active orbitals                  9
      Number of secondary orbitals              75
      Spin quantum number                      0.0
      State symmetry                             1
--
 
++    Orbital specifications:
      -----------------------
 
      Symmetry species                           1
                                                 a
      Frozen orbitals                            0
      Inactive orbitals                          6
      Active orbitals                            9
      RAS1 orbitals                              0
      RAS2 orbitals                              9
      RAS3 orbitals                              0
      Secondary orbitals                        75
      Deleted orbitals                           0
      Number of basis functions                 90
--
 
++    CI expansion specifications:
      ----------------------------
 
      Number of CSFs                          2520
      Number of determinants                  3570
      Number of root(s) required                 3
      CI roots used                              1     2     3
      weights                                0.333 0.333 0.333
      highest root included in the CI            3
      Root passed to geometry opt.               3
--
 
++    Final optimization conditions:
      ------------------------------
 
      Average CI energy                            -224.63307548
      RASSCF energy for state  3                   -224.58258094
      Super-CI energy                                -0.00000000
      RASSCF energy change                            0.00000000
      Max change in MO coefficients               0.109E-03
      Max non-diagonal density matrix element    -0.121E-03
      Maximum BLB matrix element                 -0.322E-04
      (orbital pair   6,  22 in symmetry   1)
      Norm of electronic gradient            0.782E-01
--
 
 
      Final state energy(ies):
      ------------------------
 
::    RASSCF root number  1 Total energy:   -224.68996186
::    RASSCF root number  2 Total energy:   -224.62668365
::    RASSCF root number  3 Total energy:   -224.58258094
 
++    Molecular orbitals:
      -------------------
 
      Pseudonatural active orbitals and approximate occupation numbers
 
 
 
 
      Molecular orbitals for symmetry species 1: a  
 
 
      Orbital                1         2         3         4         5         6         7         8         9        10
      Energy          -20.7828  -20.7074  -20.7073   -1.5217   -1.3218   -1.0186    0.0000    0.0000    0.0000    0.0000
      Occ. No.          2.0000    2.0000    2.0000    2.0000    2.0000    2.0000    1.9605    1.9479    1.9734    1.6055
 
    1 O1     1s         0.0043   -0.7086    0.7041   -0.0066    0.0003    0.0124   -0.0141   -0.0253    0.0000   -0.0014
    2 O1     2s         0.0029    0.0048   -0.0050    0.4943   -0.6998    0.5373   -0.1206   -0.1338   -0.0000   -0.0596
    3 O1     3s         0.0016    0.0036   -0.0036    0.0004   -0.0059    0.0207   -0.0209   -0.0554    0.0000    0.0106
    4 O1     4s         0.0002    0.0007   -0.0006    0.0012   -0.0008    0.0024   -0.0034   -0.0110    0.0000    0.0043
    5 O1     2px       -0.0005   -0.0007    0.0008   -0.0574   -0.0322    0.1119    0.1429   -0.1647   -0.0000    0.7059
    6 O1     3px       -0.0005   -0.0008    0.0005    0.0157    0.0026   -0.0209   -0.0100    0.0202    0.0000    0.0194
    7 O1     4px       -0.0001    0.0002   -0.0004    0.0025    0.0008   -0.0010   -0.0015   -0.0001   -0.0000   -0.0038
    8 O1     2py       -0.0017   -0.0018    0.0022    0.0255   -0.0862    0.0644   -0.3238   -0.4110    0.0000    0.0956
    9 O1     3py       -0.0010   -0.0021    0.0024    0.0002    0.0023   -0.0188    0.0323    0.0529   -0.0000   -0.0121
   10 O1     4py        0.0005    0.0014   -0.0014   -0.0013   -0.0014    0.0030    0.0033    0.0041   -0.0000   -0.0027
   11 O1     2pz       -0.0000    0.0000   -0.0000    0.0000   -0.0000    0.0000    0.0000    0.0000    0.3556    0.0000
   12 O1     3pz        0.0000   -0.0000    0.0000   -0.0000    0.0000   -0.0000   -0.0000    0.0000   -0.0244    0.0000
   13 O1     4pz        0.0000    0.0000   -0.0000   -0.0000    0.0000    0.0000   -0.0000   -0.0000   -0.0046    0.0000
   14 O1     3d2-       0.0002    0.0005   -0.0005    0.0107   -0.0013   -0.0134   -0.0067    0.0178   -0.0000   -0.0072
   15 O1     4d2-       0.0001    0.0003   -0.0003    0.0008   -0.0004   -0.0011   -0.0014    0.0011   -0.0000   -0.0006
   16 O1     3d1-       0.0000    0.0000   -0.0000   -0.0000    0.0000   -0.0000   -0.0000   -0.0000   -0.0258    0.0000
   17 O1     4d1-       0.0000   -0.0000    0.0000   -0.0000   -0.0000   -0.0000   -0.0000   -0.0000   -0.0035    0.0000
   18 O1     3d0       -0.0003   -0.0005    0.0006   -0.0056    0.0017    0.0049   -0.0121   -0.0168    0.0000    0.0028
   19 O1     4d0       -0.0002   -0.0003    0.0004   -0.0005    0.0006    0.0001   -0.0011   -0.0010    0.0000   -0.0005
   20 O1     3d1+       0.0000    0.0000    0.0000   -0.0000    0.0000   -0.0000    0.0000   -0.0000   -0.0067    0.0000
   21 O1     4d1+       0.0000    0.0000   -0.0000   -0.0000    0.0000    0.0000    0.0000    0.0000   -0.0008    0.0000
   22 O1     3d2+      -0.0005   -0.0008    0.0009   -0.0050    0.0021    0.0039   -0.0282   -0.0243    0.0000    0.0033
   23 O1     4d2+      -0.0002   -0.0004    0.0005   -0.0010    0.0007    0.0004   -0.0030   -0.0018   -0.0000   -0.0009
   24 O1     4f3-       0.0001    0.0001   -0.0001    0.0007   -0.0013    0.0006    0.0070    0.0045   -0.0000   -0.0003
   25 O1     4f2-      -0.0000   -0.0000   -0.0000    0.0000   -0.0000    0.0000    0.0000    0.0000    0.0026   -0.0000
   26 O1     4f1-       0.0001    0.0001   -0.0001    0.0021   -0.0013   -0.0011    0.0038    0.0049   -0.0000   -0.0012
   27 O1     4f0        0.0000    0.0000    0.0000   -0.0000   -0.0000   -0.0000   -0.0000   -0.0000   -0.0042    0.0000
   28 O1     4f1+       0.0000    0.0000   -0.0000    0.0011   -0.0003   -0.0010   -0.0002    0.0015   -0.0000   -0.0007
   29 O1     4f2+       0.0000    0.0000    0.0000   -0.0000   -0.0000   -0.0000   -0.0000   -0.0000   -0.0052   -0.0000
   30 O1     4f3+       0.0000    0.0001   -0.0001    0.0035   -0.0013   -0.0035   -0.0006    0.0058   -0.0000   -0.0027
   31 O2     1s         0.9992    0.0000   -0.0040   -0.0228   -0.0000   -0.0184   -0.0187    0.0000    0.0000    0.0312
   32 O2     2s        -0.0055   -0.0000    0.0105    0.4866    0.0000   -0.7308    0.2891   -0.0000   -0.0000    0.3206
   33 O2     3s        -0.0042   -0.0000    0.0058   -0.0454   -0.0000   -0.0373   -0.0486    0.0000    0.0000    0.0853
   34 O2     4s        -0.0006   -0.0000    0.0009   -0.0084   -0.0000   -0.0075   -0.0103    0.0000    0.0000    0.0187
   35 O2     2px       -0.0006   -0.0000    0.0027   -0.2169   -0.0000    0.3698    0.6376   -0.0000   -0.0000   -0.4317
   36 O2     3px       -0.0010   -0.0000    0.0013   -0.0111   -0.0000   -0.0231   -0.0555    0.0000    0.0000   -0.0414
   37 O2     4px        0.0016    0.0000   -0.0004    0.0008    0.0000   -0.0023   -0.0109    0.0000   -0.0000   -0.0046
   38 O2     2py       -0.0000   -0.0062   -0.0000    0.0000   -0.0544   -0.0000    0.0000    0.6036   -0.0000    0.0000
   39 O2     3py        0.0000   -0.0038   -0.0000   -0.0000    0.0361    0.0000   -0.0000   -0.0773    0.0000   -0.0000
   40 O2     4py       -0.0000    0.0010    0.0000    0.0000   -0.0054   -0.0000    0.0000   -0.0045    0.0000   -0.0000
   41 O2     2pz       -0.0000    0.0000   -0.0000    0.0000   -0.0000    0.0000    0.0000    0.0000    0.7214   -0.0000
   42 O2     3pz        0.0000    0.0000    0.0000   -0.0000    0.0000   -0.0000   -0.0000   -0.0000   -0.0498   -0.0000
   43 O2     4pz       -0.0000   -0.0000    0.0000   -0.0000    0.0000   -0.0000   -0.0000   -0.0000   -0.0137   -0.0000
   44 O2     3d2-       0.0000   -0.0010   -0.0000    0.0000   -0.0142   -0.0000    0.0000    0.0349   -0.0000    0.0000
   45 O2     4d2-       0.0000   -0.0005   -0.0000    0.0000   -0.0012   -0.0000    0.0000    0.0029   -0.0000    0.0000
   46 O2     3d1-      -0.0000    0.0000    0.0000   -0.0000    0.0000   -0.0000   -0.0000    0.0000   -0.0000   -0.0000
   47 O2     4d1-      -0.0000    0.0000    0.0000   -0.0000    0.0000   -0.0000   -0.0000    0.0000   -0.0000   -0.0000
   48 O2     3d0        0.0007    0.0000   -0.0010   -0.0069    0.0000   -0.0097   -0.0194    0.0000    0.0000    0.0195
   49 O2     4d0        0.0004    0.0000   -0.0005    0.0010    0.0000   -0.0008   -0.0011    0.0000    0.0000    0.0022
   50 O2     3d1+      -0.0000    0.0000   -0.0000    0.0000   -0.0000   -0.0000    0.0000    0.0000    0.0226   -0.0000
   51 O2     4d1+      -0.0000    0.0000   -0.0000   -0.0000   -0.0000   -0.0000    0.0000   -0.0000    0.0026   -0.0000
   52 O2     3d2+       0.0008    0.0000   -0.0013   -0.0212   -0.0000    0.0027    0.0045    0.0000    0.0000    0.0365
   53 O2     4d2+       0.0005    0.0000   -0.0006   -0.0011   -0.0000    0.0008    0.0006    0.0000    0.0000    0.0056
   54 O2     4f3-       0.0000    0.0001    0.0000   -0.0000    0.0027   -0.0000   -0.0000   -0.0079   -0.0000   -0.0000
   55 O2     4f2-      -0.0000    0.0000    0.0000   -0.0000    0.0000   -0.0000   -0.0000    0.0000   -0.0000   -0.0000
   56 O2     4f1-      -0.0000    0.0001    0.0000   -0.0000    0.0036    0.0000   -0.0000   -0.0085    0.0000   -0.0000
   57 O2     4f0        0.0000   -0.0000    0.0000   -0.0000    0.0000   -0.0000   -0.0000   -0.0000   -0.0074    0.0000
   58 O2     4f1+       0.0001    0.0000   -0.0001   -0.0008   -0.0000   -0.0014   -0.0038    0.0000    0.0000    0.0005
   59 O2     4f2+       0.0000   -0.0000    0.0000   -0.0000    0.0000   -0.0000    0.0000   -0.0000   -0.0076   -0.0000
   60 O2     4f3+       0.0002    0.0000   -0.0002   -0.0037   -0.0000   -0.0033   -0.0107    0.0000    0.0000    0.0028
   61 O3     1s         0.0043    0.7041    0.7086   -0.0066   -0.0003    0.0124   -0.0141    0.0253    0.0000   -0.0014
   62 O3     2s         0.0029   -0.0048   -0.0050    0.4943    0.6998    0.5373   -0.1206    0.1338   -0.0000   -0.0596
   63 O3     3s         0.0016   -0.0035   -0.0036    0.0004    0.0059    0.0207   -0.0209    0.0554    0.0000    0.0106
   64 O3     4s         0.0002   -0.0007   -0.0006    0.0012    0.0008    0.0024   -0.0034    0.0110    0.0000    0.0043
   65 O3     2px       -0.0005    0.0007    0.0008   -0.0574    0.0322    0.1119    0.1429    0.1647   -0.0000    0.7059
   66 O3     3px       -0.0005    0.0008    0.0005    0.0157   -0.0026   -0.0209   -0.0100   -0.0202    0.0000    0.0194
   67 O3     4px       -0.0001   -0.0002   -0.0004    0.0025   -0.0008   -0.0010   -0.0015    0.0001   -0.0000   -0.0038
   68 O3     2py        0.0017   -0.0018   -0.0022   -0.0255   -0.0862   -0.0644    0.3238   -0.4110   -0.0000   -0.0956
   69 O3     3py        0.0010   -0.0020   -0.0024   -0.0002    0.0023    0.0188   -0.0323    0.0529    0.0000    0.0121
   70 O3     4py       -0.0005    0.0014    0.0014    0.0013   -0.0014   -0.0030   -0.0033    0.0041    0.0000    0.0027
   71 O3     2pz       -0.0000   -0.0000   -0.0000    0.0000    0.0000    0.0000    0.0000   -0.0000    0.3556    0.0000
   72 O3     3pz        0.0000    0.0000    0.0000   -0.0000   -0.0000   -0.0000   -0.0000   -0.0000   -0.0244    0.0000
   73 O3     4pz        0.0000   -0.0000   -0.0000   -0.0000   -0.0000    0.0000   -0.0000    0.0000   -0.0046    0.0000
   74 O3     3d2-      -0.0002    0.0005    0.0005   -0.0107   -0.0013    0.0134    0.0067    0.0178    0.0000    0.0072
   75 O3     4d2-      -0.0001    0.0003    0.0003   -0.0008   -0.0004    0.0011    0.0014    0.0011    0.0000    0.0006
   76 O3     3d1-      -0.0000    0.0000    0.0000    0.0000    0.0000    0.0000    0.0000   -0.0000    0.0258   -0.0000
   77 O3     4d1-      -0.0000   -0.0000   -0.0000    0.0000   -0.0000    0.0000    0.0000   -0.0000    0.0035   -0.0000
   78 O3     3d0       -0.0003    0.0005    0.0006   -0.0056   -0.0017    0.0049   -0.0121    0.0168    0.0000    0.0028
   79 O3     4d0       -0.0002    0.0003    0.0004   -0.0005   -0.0006    0.0001   -0.0011    0.0010    0.0000   -0.0005
   80 O3     3d1+       0.0000   -0.0000    0.0000   -0.0000   -0.0000   -0.0000    0.0000    0.0000   -0.0067    0.0000
   81 O3     4d1+       0.0000   -0.0000   -0.0000   -0.0000   -0.0000    0.0000    0.0000   -0.0000   -0.0008    0.0000
   82 O3     3d2+      -0.0005    0.0008    0.0009   -0.0050   -0.0021    0.0039   -0.0282    0.0243    0.0000    0.0033
   83 O3     4d2+      -0.0002    0.0004    0.0005   -0.0010   -0.0007    0.0004   -0.0030    0.0018   -0.0000   -0.0009
   84 O3     4f3-      -0.0001    0.0001    0.0001   -0.0007   -0.0013   -0.0006   -0.0070    0.0045    0.0000    0.0003
   85 O3     4f2-       0.0000   -0.0000    0.0000   -0.0000   -0.0000   -0.0000   -0.0000    0.0000   -0.0026    0.0000
   86 O3     4f1-      -0.0001    0.0001    0.0001   -0.0021   -0.0013    0.0011   -0.0038    0.0049    0.0000    0.0012
   87 O3     4f0        0.0000   -0.0000    0.0000   -0.0000    0.0000   -0.0000   -0.0000    0.0000   -0.0042    0.0000
   88 O3     4f1+       0.0000   -0.0000   -0.0000    0.0011    0.0003   -0.0010   -0.0002   -0.0015   -0.0000   -0.0007
   89 O3     4f2+       0.0000   -0.0000    0.0000   -0.0000    0.0000   -0.0000   -0.0000    0.0000   -0.0052   -0.0000
   90 O3     4f3+       0.0000   -0.0001   -0.0001    0.0035    0.0013   -0.0035   -0.0006   -0.0058   -0.0000   -0.0027
 
 
      Orbital               11        12        13        14        15        16        17        18        19        20
      Energy            0.0000    0.0000    0.0000    0.0000    0.0000    0.1787    0.2263    0.2365    0.2798    0.3619
      Occ. No.          1.7033    1.8095    0.8825    0.0749    0.0426    0.0000    0.0000    0.0000    0.0000    0.0000
 
    1 O1     1s         0.0021   -0.0000   -0.0000   -0.0212   -0.0471   -0.2153   -0.1002   -0.0000    0.0928   -0.0085
    2 O1     2s         0.0024    0.0000   -0.0000   -0.2909   -0.4654   -1.5490   -0.7050   -0.0000    0.6622   -0.0136
    3 O1     3s         0.0039    0.0000    0.0000   -0.0460   -0.1019   -0.9437   -0.4521   -0.0000    0.4810    0.0178
    4 O1     4s         0.0012    0.0000   -0.0000   -0.0046   -0.0161   -0.2132   -0.0982   -0.0000    0.1115    0.0090
    5 O1     2px       -0.6556    0.0000   -0.0000    0.0047    0.2622    0.2659    0.0526    0.0000   -0.1303   -0.1824
    6 O1     3px        0.0018   -0.0000   -0.0000    0.0371   -0.0748    0.3236    0.3940    0.0000    0.1825   -0.8520
    7 O1     4px        0.0069    0.0000    0.0000   -0.0009    0.0126    0.0453    0.1566    0.0000    0.1325   -0.3390
    8 O1     2py        0.2725   -0.0000    0.0000    0.6904    0.6234    0.5349    0.4930    0.0000   -0.5965   -0.1385
    9 O1     3py        0.0012    0.0000    0.0000   -0.0721   -0.0263    0.7688    0.5891    0.0000   -0.9944   -0.1157
   10 O1     4py       -0.0031    0.0000    0.0000   -0.0073   -0.0145    0.1087    0.0720   -0.0000   -0.2294   -0.0167
   11 O1     2pz       -0.0000   -0.7028    0.6524    0.0000   -0.0000    0.0000    0.0000   -0.0413    0.0000   -0.0000
   12 O1     3pz       -0.0000    0.0011    0.0140    0.0000   -0.0000    0.0000   -0.0000    0.4132   -0.0000   -0.0000
   13 O1     4pz        0.0000    0.0085   -0.0031   -0.0000    0.0000    0.0000   -0.0000    0.2121   -0.0000   -0.0000
   14 O1     3d2-       0.0126    0.0000    0.0000   -0.0070    0.0142   -0.0643   -0.0337   -0.0000    0.0319    0.0149
   15 O1     4d2-       0.0021    0.0000    0.0000   -0.0001    0.0014   -0.0408   -0.0238   -0.0000    0.0194    0.0187
   16 O1     3d1-       0.0000    0.0172    0.0062    0.0000    0.0000   -0.0000   -0.0000    0.0048   -0.0000    0.0000
   17 O1     4d1-       0.0000    0.0028    0.0010   -0.0000    0.0000   -0.0000    0.0000   -0.0022   -0.0000    0.0000
   18 O1     3d0        0.0032   -0.0000   -0.0000    0.0106    0.0059    0.0583    0.0475    0.0000   -0.0503   -0.0144
   19 O1     4d0        0.0008   -0.0000   -0.0000    0.0028    0.0054    0.0353    0.0306    0.0000   -0.0346   -0.0127
   20 O1     3d1+      -0.0000    0.0039    0.0026    0.0000    0.0000   -0.0000   -0.0000    0.0031   -0.0000    0.0000
   21 O1     4d1+      -0.0000    0.0003    0.0003   -0.0000   -0.0000   -0.0000   -0.0000    0.0003   -0.0000    0.0000
   22 O1     3d2+       0.0121   -0.0000   -0.0000    0.0212    0.0178    0.0812    0.0749    0.0000   -0.0798   -0.0028
   23 O1     4d2+       0.0019    0.0000   -0.0000    0.0075    0.0106    0.0475    0.0470    0.0000   -0.0576   -0.0036
   24 O1     4f3-      -0.0036    0.0000    0.0000   -0.0030   -0.0048   -0.0069   -0.0022    0.0000    0.0104   -0.0025
   25 O1     4f2-       0.0000   -0.0016   -0.0007   -0.0000   -0.0000    0.0000   -0.0000    0.0015   -0.0000   -0.0000
   26 O1     4f1-      -0.0012    0.0000    0.0000   -0.0032   -0.0030   -0.0056   -0.0059   -0.0000    0.0092    0.0050
   27 O1     4f0       -0.0000    0.0026    0.0018    0.0000    0.0000   -0.0000    0.0000   -0.0021    0.0000    0.0000
   28 O1     4f1+       0.0006    0.0000   -0.0000   -0.0008   -0.0000   -0.0011   -0.0025   -0.0000    0.0018    0.0038
   29 O1     4f2+       0.0000    0.0033    0.0001   -0.0000   -0.0000    0.0000    0.0000   -0.0025   -0.0000    0.0000
   30 O1     4f3+       0.0028   -0.0000    0.0000   -0.0020    0.0016   -0.0059   -0.0071   -0.0000    0.0056    0.0095
   31 O2     1s        -0.0000   -0.0000    0.0000    0.0780    0.0000    0.0000    0.2474    0.0000   -0.2908   -0.0000
   32 O2     2s         0.0000   -0.0000    0.0000    0.8169    0.0000    0.0000    1.6922    0.0000   -1.9438   -0.0000
   33 O2     3s        -0.0000    0.0000    0.0000    0.0707    0.0000    0.0000    1.0313    0.0000   -1.1435   -0.0000
   34 O2     4s        -0.0000   -0.0000    0.0000    0.0254   -0.0000    0.0000    0.2169    0.0000   -0.2293    0.0000
   35 O2     2px        0.0000   -0.0000    0.0000    0.5439    0.0000    0.0000    0.2089   -0.0000   -0.4196    0.0000
   36 O2     3px       -0.0000    0.0000    0.0000   -0.1476    0.0000   -0.0000    0.5319    0.0000   -0.3527    0.0000
   37 O2     4px       -0.0000   -0.0000   -0.0000    0.0195   -0.0000   -0.0000    0.1602    0.0000    0.0304    0.0000
   38 O2     2py       -0.0195    0.0000    0.0000   -0.0000    1.0910    1.4175   -0.0000    0.0000    0.0000   -0.0673
   39 O2     3py       -0.0142   -0.0000    0.0000    0.0000   -0.0859    1.6018    0.0000    0.0000    0.0000    0.2009
   40 O2     4py       -0.0024    0.0000   -0.0000   -0.0000    0.0035    0.1704    0.0000    0.0000    0.0000    0.1354
   41 O2     2pz       -0.0000   -0.0000   -0.7499   -0.0000   -0.0000    0.0000    0.0000   -0.1369   -0.0000   -0.0000
   42 O2     3pz       -0.0000    0.0000   -0.0325   -0.0000   -0.0000    0.0000   -0.0000    0.2221   -0.0000   -0.0000
   43 O2     4pz       -0.0000    0.0000    0.0023   -0.0000    0.0000   -0.0000   -0.0000    0.1630   -0.0000   -0.0000
   44 O2     3d2-      -0.0398   -0.0000    0.0000    0.0000    0.0198    0.1219    0.0000    0.0000    0.0000    0.0812
   45 O2     4d2-      -0.0068   -0.0000    0.0000    0.0000   -0.0091    0.0729    0.0000    0.0000    0.0000    0.0583
   46 O2     3d1-      -0.0000   -0.0427    0.0000    0.0000    0.0000   -0.0000    0.0000   -0.0000    0.0000    0.0000
   47 O2     4d1-      -0.0000   -0.0073    0.0000    0.0000   -0.0000   -0.0000   -0.0000   -0.0000    0.0000    0.0000
[...]

>>> EXPORT i = B

>>> EXPORT j = P

>>> IF (-FILE GMJ_e2_${i}_${j}_${k}_.csv)

>>> COPY /lustre/isaac/scratch/gjones39/scpfiles/ANO-RCC-VTZP/ozone_145.25/3252816/GMJ_RHS_B_P_3_.csv /lustre/isaac/scratch/gjones39/scpfiles/ANO-RCC-VTZP/ozone_145.25/GMJ_RHS_B_P_3_.csv

>>> COPY /lustre/isaac/scratch/gjones39/scpfiles/ANO-RCC-VTZP/ozone_145.25/3252816/GMJ_IVECW_B_P_3_.csv /lustre/isaac/scratch/gjones39/scpfiles/ANO-RCC-VTZP/ozone_145.25/GMJ_IVECW_B_P_3_.csv

>>> COPY /lustre/isaac/scratch/gjones39/scpfiles/ANO-RCC-VTZP/ozone_145.25/3252816/GMJ_IVECX_B_P_3_.csv /lustre/isaac/scratch/gjones39/scpfiles/ANO-RCC-VTZP/ozone_145.25/GMJ_IVECX_B_P_3_.csv

>>> COPY /lustre/isaac/scratch/gjones39/scpfiles/ANO-RCC-VTZP/ozone_145.25/3252816/GMJ_IVECC2_B_P_3_.csv /lustre/isaac/scratch/gjones39/scpfiles/ANO-RCC-VTZP/ozone_145.25/GMJ_IVECC2_B_P_3_.csv

>>> COPY /lustre/isaac/scratch/gjones39/scpfiles/ANO-RCC-VTZP/ozone_145.25/3252816/GMJ_e2_B_P_3_.csv /lustre/isaac/scratch/gjones39/scpfiles/ANO-RCC-VTZP/ozone_145.25/GMJ_e2_B_P_3_.csv

>>> END FOREACH

>>> EXPORT j = M

>>> IF (-FILE GMJ_e2_${i}_${j}_${k}_.csv)

>>> COPY /lustre/isaac/scratch/gjones39/scpfiles/ANO-RCC-VTZP/ozone_145.25/3252816/GMJ_RHS_B_M_3_.csv /lustre/isaac/scratch/gjones39/scpfiles/ANO-RCC-VTZP/ozone_145.25/GMJ_RHS_B_M_3_.csv

>>> COPY /lustre/isaac/scratch/gjones39/scpfiles/ANO-RCC-VTZP/ozone_145.25/3252816/GMJ_IVECW_B_M_3_.csv /lustre/isaac/scratch/gjones39/scpfiles/ANO-RCC-VTZP/ozone_145.25/GMJ_IVECW_B_M_3_.csv

>>> COPY /lustre/isaac/scratch/gjones39/scpfiles/ANO-RCC-VTZP/ozone_145.25/3252816/GMJ_IVECX_B_M_3_.csv /lustre/isaac/scratch/gjones39/scpfiles/ANO-RCC-VTZP/ozone_145.25/GMJ_IVECX_B_M_3_.csv

>>> COPY /lustre/isaac/scratch/gjones39/scpfiles/ANO-RCC-VTZP/ozone_145.25/3252816/GMJ_IVECC2_B_M_3_.csv /lustre/isaac/scratch/gjones39/scpfiles/ANO-RCC-VTZP/ozone_145.25/GMJ_IVECC2_B_M_3_.csv

>>> COPY /lustre/isaac/scratch/gjones39/scpfiles/ANO-RCC-VTZP/ozone_145.25/3252816/GMJ_e2_B_M_3_.csv /lustre/isaac/scratch/gjones39/scpfiles/ANO-RCC-VTZP/ozone_145.25/GMJ_e2_B_M_3_.csv

>>> END FOREACH

>>> END FOREACH

>>> EXPORT i = E

>>> EXPORT j = P

>>> IF (-FILE GMJ_e2_${i}_${j}_${k}_.csv)

>>> COPY /lustre/isaac/scratch/gjones39/scpfiles/ANO-RCC-VTZP/ozone_145.25/3252816/GMJ_RHS_E_P_3_.csv /lustre/isaac/scratch/gjones39/scpfiles/ANO-RCC-VTZP/ozone_145.25/GMJ_RHS_E_P_3_.csv

>>> COPY /lustre/isaac/scratch/gjones39/scpfiles/ANO-RCC-VTZP/ozone_145.25/3252816/GMJ_IVECW_E_P_3_.csv /lustre/isaac/scratch/gjones39/scpfiles/ANO-RCC-VTZP/ozone_145.25/GMJ_IVECW_E_P_3_.csv

>>> COPY /lustre/isaac/scratch/gjones39/scpfiles/ANO-RCC-VTZP/ozone_145.25/3252816/GMJ_IVECX_E_P_3_.csv /lustre/isaac/scratch/gjones39/scpfiles/ANO-RCC-VTZP/ozone_145.25/GMJ_IVECX_E_P_3_.csv

>>> COPY /lustre/isaac/scratch/gjones39/scpfiles/ANO-RCC-VTZP/ozone_145.25/3252816/GMJ_IVECC2_E_P_3_.csv /lustre/isaac/scratch/gjones39/scpfiles/ANO-RCC-VTZP/ozone_145.25/GMJ_IVECC2_E_P_3_.csv

>>> COPY /lustre/isaac/scratch/gjones39/scpfiles/ANO-RCC-VTZP/ozone_145.25/3252816/GMJ_e2_E_P_3_.csv /lustre/isaac/scratch/gjones39/scpfiles/ANO-RCC-VTZP/ozone_145.25/GMJ_e2_E_P_3_.csv

>>> END FOREACH

>>> EXPORT j = M

>>> IF (-FILE GMJ_e2_${i}_${j}_${k}_.csv)

>>> COPY /lustre/isaac/scratch/gjones39/scpfiles/ANO-RCC-VTZP/ozone_145.25/3252816/GMJ_RHS_E_M_3_.csv /lustre/isaac/scratch/gjones39/scpfiles/ANO-RCC-VTZP/ozone_145.25/GMJ_RHS_E_M_3_.csv

>>> COPY /lustre/isaac/scratch/gjones39/scpfiles/ANO-RCC-VTZP/ozone_145.25/3252816/GMJ_IVECW_E_M_3_.csv /lustre/isaac/scratch/gjones39/scpfiles/ANO-RCC-VTZP/ozone_145.25/GMJ_IVECW_E_M_3_.csv

>>> COPY /lustre/isaac/scratch/gjones39/scpfiles/ANO-RCC-VTZP/ozone_145.25/3252816/GMJ_IVECX_E_M_3_.csv /lustre/isaac/scratch/gjones39/scpfiles/ANO-RCC-VTZP/ozone_145.25/GMJ_IVECX_E_M_3_.csv

>>> COPY /lustre/isaac/scratch/gjones39/scpfiles/ANO-RCC-VTZP/ozone_145.25/3252816/GMJ_IVECC2_E_M_3_.csv /lustre/isaac/scratch/gjones39/scpfiles/ANO-RCC-VTZP/ozone_145.25/GMJ_IVECC2_E_M_3_.csv

>>> COPY /lustre/isaac/scratch/gjones39/scpfiles/ANO-RCC-VTZP/ozone_145.25/3252816/GMJ_e2_E_M_3_.csv /lustre/isaac/scratch/gjones39/scpfiles/ANO-RCC-VTZP/ozone_145.25/GMJ_e2_E_M_3_.csv

>>> END FOREACH

>>> END FOREACH

>>> EXPORT i = F

>>> EXPORT j = P

>>> IF (-FILE GMJ_e2_${i}_${j}_${k}_.csv)

>>> COPY /lustre/isaac/scratch/gjones39/scpfiles/ANO-RCC-VTZP/ozone_145.25/3252816/GMJ_RHS_F_P_3_.csv /lustre/isaac/scratch/gjones39/scpfiles/ANO-RCC-VTZP/ozone_145.25/GMJ_RHS_F_P_3_.csv

>>> COPY /lustre/isaac/scratch/gjones39/scpfiles/ANO-RCC-VTZP/ozone_145.25/3252816/GMJ_IVECW_F_P_3_.csv /lustre/isaac/scratch/gjones39/scpfiles/ANO-RCC-VTZP/ozone_145.25/GMJ_IVECW_F_P_3_.csv

>>> COPY /lustre/isaac/scratch/gjones39/scpfiles/ANO-RCC-VTZP/ozone_145.25/3252816/GMJ_IVECX_F_P_3_.csv /lustre/isaac/scratch/gjones39/scpfiles/ANO-RCC-VTZP/ozone_145.25/GMJ_IVECX_F_P_3_.csv

>>> COPY /lustre/isaac/scratch/gjones39/scpfiles/ANO-RCC-VTZP/ozone_145.25/3252816/GMJ_IVECC2_F_P_3_.csv /lustre/isaac/scratch/gjones39/scpfiles/ANO-RCC-VTZP/ozone_145.25/GMJ_IVECC2_F_P_3_.csv

>>> COPY /lustre/isaac/scratch/gjones39/scpfiles/ANO-RCC-VTZP/ozone_145.25/3252816/GMJ_e2_F_P_3_.csv /lustre/isaac/scratch/gjones39/scpfiles/ANO-RCC-VTZP/ozone_145.25/GMJ_e2_F_P_3_.csv

>>> END FOREACH

>>> EXPORT j = M

>>> IF (-FILE GMJ_e2_${i}_${j}_${k}_.csv)

>>> COPY /lustre/isaac/scratch/gjones39/scpfiles/ANO-RCC-VTZP/ozone_145.25/3252816/GMJ_RHS_F_M_3_.csv /lustre/isaac/scratch/gjones39/scpfiles/ANO-RCC-VTZP/ozone_145.25/GMJ_RHS_F_M_3_.csv

>>> COPY /lustre/isaac/scratch/gjones39/scpfiles/ANO-RCC-VTZP/ozone_145.25/3252816/GMJ_IVECW_F_M_3_.csv /lustre/isaac/scratch/gjones39/scpfiles/ANO-RCC-VTZP/ozone_145.25/GMJ_IVECW_F_M_3_.csv

>>> COPY /lustre/isaac/scratch/gjones39/scpfiles/ANO-RCC-VTZP/ozone_145.25/3252816/GMJ_IVECX_F_M_3_.csv /lustre/isaac/scratch/gjones39/scpfiles/ANO-RCC-VTZP/ozone_145.25/GMJ_IVECX_F_M_3_.csv

>>> COPY /lustre/isaac/scratch/gjones39/scpfiles/ANO-RCC-VTZP/ozone_145.25/3252816/GMJ_IVECC2_F_M_3_.csv /lustre/isaac/scratch/gjones39/scpfiles/ANO-RCC-VTZP/ozone_145.25/GMJ_IVECC2_F_M_3_.csv

>>> COPY /lustre/isaac/scratch/gjones39/scpfiles/ANO-RCC-VTZP/ozone_145.25/3252816/GMJ_e2_F_M_3_.csv /lustre/isaac/scratch/gjones39/scpfiles/ANO-RCC-VTZP/ozone_145.25/GMJ_e2_F_M_3_.csv

>>> END FOREACH

>>> END FOREACH

>>> EXPORT i = G

>>> EXPORT j = P

>>> IF (-FILE GMJ_e2_${i}_${j}_${k}_.csv)

>>> COPY /lustre/isaac/scratch/gjones39/scpfiles/ANO-RCC-VTZP/ozone_145.25/3252816/GMJ_RHS_G_P_3_.csv /lustre/isaac/scratch/gjones39/scpfiles/ANO-RCC-VTZP/ozone_145.25/GMJ_RHS_G_P_3_.csv

>>> COPY /lustre/isaac/scratch/gjones39/scpfiles/ANO-RCC-VTZP/ozone_145.25/3252816/GMJ_IVECW_G_P_3_.csv /lustre/isaac/scratch/gjones39/scpfiles/ANO-RCC-VTZP/ozone_145.25/GMJ_IVECW_G_P_3_.csv

>>> COPY /lustre/isaac/scratch/gjones39/scpfiles/ANO-RCC-VTZP/ozone_145.25/3252816/GMJ_IVECX_G_P_3_.csv /lustre/isaac/scratch/gjones39/scpfiles/ANO-RCC-VTZP/ozone_145.25/GMJ_IVECX_G_P_3_.csv

>>> COPY /lustre/isaac/scratch/gjones39/scpfiles/ANO-RCC-VTZP/ozone_145.25/3252816/GMJ_IVECC2_G_P_3_.csv /lustre/isaac/scratch/gjones39/scpfiles/ANO-RCC-VTZP/ozone_145.25/GMJ_IVECC2_G_P_3_.csv

>>> COPY /lustre/isaac/scratch/gjones39/scpfiles/ANO-RCC-VTZP/ozone_145.25/3252816/GMJ_e2_G_P_3_.csv /lustre/isaac/scratch/gjones39/scpfiles/ANO-RCC-VTZP/ozone_145.25/GMJ_e2_G_P_3_.csv

>>> END FOREACH

>>> EXPORT j = M

>>> IF (-FILE GMJ_e2_${i}_${j}_${k}_.csv)

>>> COPY /lustre/isaac/scratch/gjones39/scpfiles/ANO-RCC-VTZP/ozone_145.25/3252816/GMJ_RHS_G_M_3_.csv /lustre/isaac/scratch/gjones39/scpfiles/ANO-RCC-VTZP/ozone_145.25/GMJ_RHS_G_M_3_.csv

>>> COPY /lustre/isaac/scratch/gjones39/scpfiles/ANO-RCC-VTZP/ozone_145.25/3252816/GMJ_IVECW_G_M_3_.csv /lustre/isaac/scratch/gjones39/scpfiles/ANO-RCC-VTZP/ozone_145.25/GMJ_IVECW_G_M_3_.csv

>>> COPY /lustre/isaac/scratch/gjones39/scpfiles/ANO-RCC-VTZP/ozone_145.25/3252816/GMJ_IVECX_G_M_3_.csv /lustre/isaac/scratch/gjones39/scpfiles/ANO-RCC-VTZP/ozone_145.25/GMJ_IVECX_G_M_3_.csv

>>> COPY /lustre/isaac/scratch/gjones39/scpfiles/ANO-RCC-VTZP/ozone_145.25/3252816/GMJ_IVECC2_G_M_3_.csv /lustre/isaac/scratch/gjones39/scpfiles/ANO-RCC-VTZP/ozone_145.25/GMJ_IVECC2_G_M_3_.csv

>>> COPY /lustre/isaac/scratch/gjones39/scpfiles/ANO-RCC-VTZP/ozone_145.25/3252816/GMJ_e2_G_M_3_.csv /lustre/isaac/scratch/gjones39/scpfiles/ANO-RCC-VTZP/ozone_145.25/GMJ_e2_G_M_3_.csv

>>> END FOREACH

>>> END FOREACH

>>> EXPORT i = H

>>> EXPORT j = P

>>> IF (-FILE GMJ_e2_${i}_${j}_${k}_.csv)

>>> COPY /lustre/isaac/scratch/gjones39/scpfiles/ANO-RCC-VTZP/ozone_145.25/3252816/GMJ_RHS_H_P_3_.csv /lustre/isaac/scratch/gjones39/scpfiles/ANO-RCC-VTZP/ozone_145.25/GMJ_RHS_H_P_3_.csv

>>> COPY /lustre/isaac/scratch/gjones39/scpfiles/ANO-RCC-VTZP/ozone_145.25/3252816/GMJ_IVECW_H_P_3_.csv /lustre/isaac/scratch/gjones39/scpfiles/ANO-RCC-VTZP/ozone_145.25/GMJ_IVECW_H_P_3_.csv

>>> COPY /lustre/isaac/scratch/gjones39/scpfiles/ANO-RCC-VTZP/ozone_145.25/3252816/GMJ_IVECX_H_P_3_.csv /lustre/isaac/scratch/gjones39/scpfiles/ANO-RCC-VTZP/ozone_145.25/GMJ_IVECX_H_P_3_.csv

>>> COPY /lustre/isaac/scratch/gjones39/scpfiles/ANO-RCC-VTZP/ozone_145.25/3252816/GMJ_IVECC2_H_P_3_.csv /lustre/isaac/scratch/gjones39/scpfiles/ANO-RCC-VTZP/ozone_145.25/GMJ_IVECC2_H_P_3_.csv

>>> COPY /lustre/isaac/scratch/gjones39/scpfiles/ANO-RCC-VTZP/ozone_145.25/3252816/GMJ_e2_H_P_3_.csv /lustre/isaac/scratch/gjones39/scpfiles/ANO-RCC-VTZP/ozone_145.25/GMJ_e2_H_P_3_.csv

>>> END FOREACH

>>> EXPORT j = M

>>> IF (-FILE GMJ_e2_${i}_${j}_${k}_.csv)

>>> COPY /lustre/isaac/scratch/gjones39/scpfiles/ANO-RCC-VTZP/ozone_145.25/3252816/GMJ_RHS_H_M_3_.csv /lustre/isaac/scratch/gjones39/scpfiles/ANO-RCC-VTZP/ozone_145.25/GMJ_RHS_H_M_3_.csv

>>> COPY /lustre/isaac/scratch/gjones39/scpfiles/ANO-RCC-VTZP/ozone_145.25/3252816/GMJ_IVECW_H_M_3_.csv /lustre/isaac/scratch/gjones39/scpfiles/ANO-RCC-VTZP/ozone_145.25/GMJ_IVECW_H_M_3_.csv

>>> COPY /lustre/isaac/scratch/gjones39/scpfiles/ANO-RCC-VTZP/ozone_145.25/3252816/GMJ_IVECX_H_M_3_.csv /lustre/isaac/scratch/gjones39/scpfiles/ANO-RCC-VTZP/ozone_145.25/GMJ_IVECX_H_M_3_.csv

>>> COPY /lustre/isaac/scratch/gjones39/scpfiles/ANO-RCC-VTZP/ozone_145.25/3252816/GMJ_IVECC2_H_M_3_.csv /lustre/isaac/scratch/gjones39/scpfiles/ANO-RCC-VTZP/ozone_145.25/GMJ_IVECC2_H_M_3_.csv

>>> COPY /lustre/isaac/scratch/gjones39/scpfiles/ANO-RCC-VTZP/ozone_145.25/3252816/GMJ_e2_H_M_3_.csv /lustre/isaac/scratch/gjones39/scpfiles/ANO-RCC-VTZP/ozone_145.25/GMJ_e2_H_M_3_.csv

>>> END FOREACH

>>> END FOREACH

>>> END FOREACH

>>> EXPORT j = 1

>>> EXPORT i = A

>>> IF (-FILE GMJ_e2_${i}_${j}_.csv)

>>> COPY /lustre/isaac/scratch/gjones39/scpfiles/ANO-RCC-VTZP/ozone_145.25/3252816/GMJ_RHS_A_1_.csv /lustre/isaac/scratch/gjones39/scpfiles/ANO-RCC-VTZP/ozone_145.25/GMJ_RHS_A_1_.csv

>>> COPY /lustre/isaac/scratch/gjones39/scpfiles/ANO-RCC-VTZP/ozone_145.25/3252816/GMJ_IVECW_A_1_.csv /lustre/isaac/scratch/gjones39/scpfiles/ANO-RCC-VTZP/ozone_145.25/GMJ_IVECW_A_1_.csv

>>> COPY /lustre/isaac/scratch/gjones39/scpfiles/ANO-RCC-VTZP/ozone_145.25/3252816/GMJ_IVECX_A_1_.csv /lustre/isaac/scratch/gjones39/scpfiles/ANO-RCC-VTZP/ozone_145.25/GMJ_IVECX_A_1_.csv

>>> COPY /lustre/isaac/scratch/gjones39/scpfiles/ANO-RCC-VTZP/ozone_145.25/3252816/GMJ_IVECC2_A_1_.csv /lustre/isaac/scratch/gjones39/scpfiles/ANO-RCC-VTZP/ozone_145.25/GMJ_IVECC2_A_1_.csv

>>> COPY /lustre/isaac/scratch/gjones39/scpfiles/ANO-RCC-VTZP/ozone_145.25/3252816/GMJ_e2_A_1_.csv /lustre/isaac/scratch/gjones39/scpfiles/ANO-RCC-VTZP/ozone_145.25/GMJ_e2_A_1_.csv

>>> END FOREACH

>>> EXPORT i = C

>>> IF (-FILE GMJ_e2_${i}_${j}_.csv)

>>> COPY /lustre/isaac/scratch/gjones39/scpfiles/ANO-RCC-VTZP/ozone_145.25/3252816/GMJ_RHS_C_1_.csv /lustre/isaac/scratch/gjones39/scpfiles/ANO-RCC-VTZP/ozone_145.25/GMJ_RHS_C_1_.csv

>>> COPY /lustre/isaac/scratch/gjones39/scpfiles/ANO-RCC-VTZP/ozone_145.25/3252816/GMJ_IVECW_C_1_.csv /lustre/isaac/scratch/gjones39/scpfiles/ANO-RCC-VTZP/ozone_145.25/GMJ_IVECW_C_1_.csv

>>> COPY /lustre/isaac/scratch/gjones39/scpfiles/ANO-RCC-VTZP/ozone_145.25/3252816/GMJ_IVECX_C_1_.csv /lustre/isaac/scratch/gjones39/scpfiles/ANO-RCC-VTZP/ozone_145.25/GMJ_IVECX_C_1_.csv

>>> COPY /lustre/isaac/scratch/gjones39/scpfiles/ANO-RCC-VTZP/ozone_145.25/3252816/GMJ_IVECC2_C_1_.csv /lustre/isaac/scratch/gjones39/scpfiles/ANO-RCC-VTZP/ozone_145.25/GMJ_IVECC2_C_1_.csv

>>> COPY /lustre/isaac/scratch/gjones39/scpfiles/ANO-RCC-VTZP/ozone_145.25/3252816/GMJ_e2_C_1_.csv /lustre/isaac/scratch/gjones39/scpfiles/ANO-RCC-VTZP/ozone_145.25/GMJ_e2_C_1_.csv

>>> END FOREACH

>>> EXPORT i = D

>>> IF (-FILE GMJ_e2_${i}_${j}_.csv)

>>> COPY /lustre/isaac/scratch/gjones39/scpfiles/ANO-RCC-VTZP/ozone_145.25/3252816/GMJ_RHS_D_1_.csv /lustre/isaac/scratch/gjones39/scpfiles/ANO-RCC-VTZP/ozone_145.25/GMJ_RHS_D_1_.csv

>>> COPY /lustre/isaac/scratch/gjones39/scpfiles/ANO-RCC-VTZP/ozone_145.25/3252816/GMJ_IVECW_D_1_.csv /lustre/isaac/scratch/gjones39/scpfiles/ANO-RCC-VTZP/ozone_145.25/GMJ_IVECW_D_1_.csv

>>> COPY /lustre/isaac/scratch/gjones39/scpfiles/ANO-RCC-VTZP/ozone_145.25/3252816/GMJ_IVECX_D_1_.csv /lustre/isaac/scratch/gjones39/scpfiles/ANO-RCC-VTZP/ozone_145.25/GMJ_IVECX_D_1_.csv

>>> COPY /lustre/isaac/scratch/gjones39/scpfiles/ANO-RCC-VTZP/ozone_145.25/3252816/GMJ_IVECC2_D_1_.csv /lustre/isaac/scratch/gjones39/scpfiles/ANO-RCC-VTZP/ozone_145.25/GMJ_IVECC2_D_1_.csv

>>> COPY /lustre/isaac/scratch/gjones39/scpfiles/ANO-RCC-VTZP/ozone_145.25/3252816/GMJ_e2_D_1_.csv /lustre/isaac/scratch/gjones39/scpfiles/ANO-RCC-VTZP/ozone_145.25/GMJ_e2_D_1_.csv

>>> END FOREACH

>>> END FOREACH

>>> EXPORT j = 2

>>> EXPORT i = A

>>> IF (-FILE GMJ_e2_${i}_${j}_.csv)

>>> COPY /lustre/isaac/scratch/gjones39/scpfiles/ANO-RCC-VTZP/ozone_145.25/3252816/GMJ_RHS_A_2_.csv /lustre/isaac/scratch/gjones39/scpfiles/ANO-RCC-VTZP/ozone_145.25/GMJ_RHS_A_2_.csv

>>> COPY /lustre/isaac/scratch/gjones39/scpfiles/ANO-RCC-VTZP/ozone_145.25/3252816/GMJ_IVECW_A_2_.csv /lustre/isaac/scratch/gjones39/scpfiles/ANO-RCC-VTZP/ozone_145.25/GMJ_IVECW_A_2_.csv

>>> COPY /lustre/isaac/scratch/gjones39/scpfiles/ANO-RCC-VTZP/ozone_145.25/3252816/GMJ_IVECX_A_2_.csv /lustre/isaac/scratch/gjones39/scpfiles/ANO-RCC-VTZP/ozone_145.25/GMJ_IVECX_A_2_.csv

>>> COPY /lustre/isaac/scratch/gjones39/scpfiles/ANO-RCC-VTZP/ozone_145.25/3252816/GMJ_IVECC2_A_2_.csv /lustre/isaac/scratch/gjones39/scpfiles/ANO-RCC-VTZP/ozone_145.25/GMJ_IVECC2_A_2_.csv

>>> COPY /lustre/isaac/scratch/gjones39/scpfiles/ANO-RCC-VTZP/ozone_145.25/3252816/GMJ_e2_A_2_.csv /lustre/isaac/scratch/gjones39/scpfiles/ANO-RCC-VTZP/ozone_145.25/GMJ_e2_A_2_.csv

>>> END FOREACH

>>> EXPORT i = C

>>> IF (-FILE GMJ_e2_${i}_${j}_.csv)

>>> COPY /lustre/isaac/scratch/gjones39/scpfiles/ANO-RCC-VTZP/ozone_145.25/3252816/GMJ_RHS_C_2_.csv /lustre/isaac/scratch/gjones39/scpfiles/ANO-RCC-VTZP/ozone_145.25/GMJ_RHS_C_2_.csv

>>> COPY /lustre/isaac/scratch/gjones39/scpfiles/ANO-RCC-VTZP/ozone_145.25/3252816/GMJ_IVECW_C_2_.csv /lustre/isaac/scratch/gjones39/scpfiles/ANO-RCC-VTZP/ozone_145.25/GMJ_IVECW_C_2_.csv

>>> COPY /lustre/isaac/scratch/gjones39/scpfiles/ANO-RCC-VTZP/ozone_145.25/3252816/GMJ_IVECX_C_2_.csv /lustre/isaac/scratch/gjones39/scpfiles/ANO-RCC-VTZP/ozone_145.25/GMJ_IVECX_C_2_.csv

>>> COPY /lustre/isaac/scratch/gjones39/scpfiles/ANO-RCC-VTZP/ozone_145.25/3252816/GMJ_IVECC2_C_2_.csv /lustre/isaac/scratch/gjones39/scpfiles/ANO-RCC-VTZP/ozone_145.25/GMJ_IVECC2_C_2_.csv

>>> COPY /lustre/isaac/scratch/gjones39/scpfiles/ANO-RCC-VTZP/ozone_145.25/3252816/GMJ_e2_C_2_.csv /lustre/isaac/scratch/gjones39/scpfiles/ANO-RCC-VTZP/ozone_145.25/GMJ_e2_C_2_.csv

>>> END FOREACH

>>> EXPORT i = D

>>> IF (-FILE GMJ_e2_${i}_${j}_.csv)

>>> COPY /lustre/isaac/scratch/gjones39/scpfiles/ANO-RCC-VTZP/ozone_145.25/3252816/GMJ_RHS_D_2_.csv /lustre/isaac/scratch/gjones39/scpfiles/ANO-RCC-VTZP/ozone_145.25/GMJ_RHS_D_2_.csv

>>> COPY /lustre/isaac/scratch/gjones39/scpfiles/ANO-RCC-VTZP/ozone_145.25/3252816/GMJ_IVECW_D_2_.csv /lustre/isaac/scratch/gjones39/scpfiles/ANO-RCC-VTZP/ozone_145.25/GMJ_IVECW_D_2_.csv

>>> COPY /lustre/isaac/scratch/gjones39/scpfiles/ANO-RCC-VTZP/ozone_145.25/3252816/GMJ_IVECX_D_2_.csv /lustre/isaac/scratch/gjones39/scpfiles/ANO-RCC-VTZP/ozone_145.25/GMJ_IVECX_D_2_.csv

>>> COPY /lustre/isaac/scratch/gjones39/scpfiles/ANO-RCC-VTZP/ozone_145.25/3252816/GMJ_IVECC2_D_2_.csv /lustre/isaac/scratch/gjones39/scpfiles/ANO-RCC-VTZP/ozone_145.25/GMJ_IVECC2_D_2_.csv

>>> COPY /lustre/isaac/scratch/gjones39/scpfiles/ANO-RCC-VTZP/ozone_145.25/3252816/GMJ_e2_D_2_.csv /lustre/isaac/scratch/gjones39/scpfiles/ANO-RCC-VTZP/ozone_145.25/GMJ_e2_D_2_.csv

>>> END FOREACH

>>> END FOREACH

>>> EXPORT j = 3

>>> EXPORT i = A

>>> IF (-FILE GMJ_e2_${i}_${j}_.csv)

>>> COPY /lustre/isaac/scratch/gjones39/scpfiles/ANO-RCC-VTZP/ozone_145.25/3252816/GMJ_RHS_A_3_.csv /lustre/isaac/scratch/gjones39/scpfiles/ANO-RCC-VTZP/ozone_145.25/GMJ_RHS_A_3_.csv

>>> COPY /lustre/isaac/scratch/gjones39/scpfiles/ANO-RCC-VTZP/ozone_145.25/3252816/GMJ_IVECW_A_3_.csv /lustre/isaac/scratch/gjones39/scpfiles/ANO-RCC-VTZP/ozone_145.25/GMJ_IVECW_A_3_.csv

>>> COPY /lustre/isaac/scratch/gjones39/scpfiles/ANO-RCC-VTZP/ozone_145.25/3252816/GMJ_IVECX_A_3_.csv /lustre/isaac/scratch/gjones39/scpfiles/ANO-RCC-VTZP/ozone_145.25/GMJ_IVECX_A_3_.csv

>>> COPY /lustre/isaac/scratch/gjones39/scpfiles/ANO-RCC-VTZP/ozone_145.25/3252816/GMJ_IVECC2_A_3_.csv /lustre/isaac/scratch/gjones39/scpfiles/ANO-RCC-VTZP/ozone_145.25/GMJ_IVECC2_A_3_.csv

>>> COPY /lustre/isaac/scratch/gjones39/scpfiles/ANO-RCC-VTZP/ozone_145.25/3252816/GMJ_e2_A_3_.csv /lustre/isaac/scratch/gjones39/scpfiles/ANO-RCC-VTZP/ozone_145.25/GMJ_e2_A_3_.csv

>>> END FOREACH

>>> EXPORT i = C

>>> IF (-FILE GMJ_e2_${i}_${j}_.csv)

>>> COPY /lustre/isaac/scratch/gjones39/scpfiles/ANO-RCC-VTZP/ozone_145.25/3252816/GMJ_RHS_C_3_.csv /lustre/isaac/scratch/gjones39/scpfiles/ANO-RCC-VTZP/ozone_145.25/GMJ_RHS_C_3_.csv

>>> COPY /lustre/isaac/scratch/gjones39/scpfiles/ANO-RCC-VTZP/ozone_145.25/3252816/GMJ_IVECW_C_3_.csv /lustre/isaac/scratch/gjones39/scpfiles/ANO-RCC-VTZP/ozone_145.25/GMJ_IVECW_C_3_.csv

>>> COPY /lustre/isaac/scratch/gjones39/scpfiles/ANO-RCC-VTZP/ozone_145.25/3252816/GMJ_IVECX_C_3_.csv /lustre/isaac/scratch/gjones39/scpfiles/ANO-RCC-VTZP/ozone_145.25/GMJ_IVECX_C_3_.csv

>>> COPY /lustre/isaac/scratch/gjones39/scpfiles/ANO-RCC-VTZP/ozone_145.25/3252816/GMJ_IVECC2_C_3_.csv /lustre/isaac/scratch/gjones39/scpfiles/ANO-RCC-VTZP/ozone_145.25/GMJ_IVECC2_C_3_.csv

>>> COPY /lustre/isaac/scratch/gjones39/scpfiles/ANO-RCC-VTZP/ozone_145.25/3252816/GMJ_e2_C_3_.csv /lustre/isaac/scratch/gjones39/scpfiles/ANO-RCC-VTZP/ozone_145.25/GMJ_e2_C_3_.csv

>>> END FOREACH

>>> EXPORT i = D

>>> IF (-FILE GMJ_e2_${i}_${j}_.csv)

>>> COPY /lustre/isaac/scratch/gjones39/scpfiles/ANO-RCC-VTZP/ozone_145.25/3252816/GMJ_RHS_D_3_.csv /lustre/isaac/scratch/gjones39/scpfiles/ANO-RCC-VTZP/ozone_145.25/GMJ_RHS_D_3_.csv

>>> COPY /lustre/isaac/scratch/gjones39/scpfiles/ANO-RCC-VTZP/ozone_145.25/3252816/GMJ_IVECW_D_3_.csv /lustre/isaac/scratch/gjones39/scpfiles/ANO-RCC-VTZP/ozone_145.25/GMJ_IVECW_D_3_.csv

>>> COPY /lustre/isaac/scratch/gjones39/scpfiles/ANO-RCC-VTZP/ozone_145.25/3252816/GMJ_IVECX_D_3_.csv /lustre/isaac/scratch/gjones39/scpfiles/ANO-RCC-VTZP/ozone_145.25/GMJ_IVECX_D_3_.csv

>>> COPY /lustre/isaac/scratch/gjones39/scpfiles/ANO-RCC-VTZP/ozone_145.25/3252816/GMJ_IVECC2_D_3_.csv /lustre/isaac/scratch/gjones39/scpfiles/ANO-RCC-VTZP/ozone_145.25/GMJ_IVECC2_D_3_.csv

>>> COPY /lustre/isaac/scratch/gjones39/scpfiles/ANO-RCC-VTZP/ozone_145.25/3252816/GMJ_e2_D_3_.csv /lustre/isaac/scratch/gjones39/scpfiles/ANO-RCC-VTZP/ozone_145.25/GMJ_e2_D_3_.csv

>>> END FOREACH

>>> END FOREACH

    Timing: Wall=66.48 User=42.58 System=20.42
****************************************************************************************************
*** WorkDir at /lustre/isaac/scratch/gjones39/scpfiles/ANO-RCC-VTZP/ozone_145.25/3252816 cleaned ***
****************************************************************************************************
