[Molden Format]
[N_Atoms]
                     2
[Atoms] (AU)
BE1         1      4           0.00000000      0.00000000      0.00000000
O2          2      8           0.00000000      0.00000000      1.70075351
[Charge] (Mulliken)
  0.660211396700404     
 -0.660211396700461     
[GTO] (AU)
   1
   s  14
  2.262859900E+04  8.443999941E-05
  3.372318100E+03  4.601499968E-04
  7.603504000E+02  2.285389984E-03
  2.117404800E+02  9.648129932E-03
  6.722346800E+01  3.494469975E-02
  2.337217700E+01  1.061099893E-01
  8.721373000E+00  2.458240383E-01
  3.468091000E+00  3.862428773E-01
  1.452144000E+00  3.105526078E-01
  6.086150000E-01  6.415933955E-02
  2.576860000E-01 -2.265049984E-03
  1.041760000E-01 -5.217499963E-04
  4.242700000E-02 -8.757499938E-04
  1.484900000E-02  1.242199991E-04
   s  14
  2.262859900E+04 -1.586999994E-05
  3.372318100E+03 -8.656999968E-05
  7.603504000E+02 -4.302199984E-04
  2.117404800E+02 -1.825079993E-03
  6.722346800E+01 -6.682749976E-03
  2.337217700E+01 -2.095119992E-02
  8.721373000E+00 -5.200308981E-02
  3.468091000E+00 -9.849176964E-02
  1.452144000E+00 -1.355800695E-01
  6.086150000E-01 -6.429875976E-02
  2.576860000E-01  3.125414989E-01
  1.041760000E-01  6.270468577E-01
  4.242700000E-02  2.110231492E-01
  1.484900000E-02 -4.104669985E-03
   p   9
  3.371018400E+01  1.069960000E-03
  8.057649500E+00  6.828550001E-03
  2.836471400E+00  2.119065000E-02
  1.099965700E+00  5.843696001E-02
  4.433964000E-01  2.020920800E-01
  1.822264000E-01  4.582953101E-01
  7.572410000E-02  3.691239601E-01
  3.168540000E-02  6.611471001E-02
  1.108990000E-02  1.405160000E-03
 
   2
   s  14
  1.053749500E+05  1.238600013E-04
  1.567924000E+04  5.120100053E-04
  3.534544700E+03  2.152910022E-03
  9.873651600E+02  8.528440089E-03
  3.159787500E+02  3.018049031E-02
  1.116542800E+02  9.099702095E-02
  4.269945100E+01  2.177936423E-01
  1.739559600E+01  3.686245738E-01
  7.438309000E+00  3.366707335E-01
  3.222862000E+00  9.657630101E-02
  1.253877000E+00  2.144520022E-03
  4.951550000E-01  1.194350012E-03
  1.916650000E-01  5.390200056E-04
  6.708300000E-02  2.103400022E-04
   s  14
  1.053749500E+05 -2.815000008E-05
  1.567924000E+04 -1.163000003E-04
  3.534544700E+03 -4.909200013E-04
  9.873651600E+02 -1.946160005E-03
  3.159787500E+02 -7.005300019E-03
  1.116542800E+02 -2.167814006E-02
  4.269945100E+01 -5.641213015E-02
  1.739559600E+01 -1.127053003E-01
  7.438309000E+00 -1.589119704E-01
  3.222862000E+00 -3.355083009E-02
  1.253877000E+00  3.531902810E-01
  4.951550000E-01  5.534199315E-01
  1.916650000E-01  2.301839106E-01
  6.708300000E-02  1.127267003E-02
   p   9
  2.000000000E+02  9.173000030E-04
  4.653336700E+01  7.377140024E-03
  1.462180900E+01  3.483515011E-02
  5.313064000E+00  1.144397004E-01
  2.102525000E+00  2.554966408E-01
  8.502230000E-01  3.722557412E-01
  3.375970000E-01  3.323314911E-01
  1.288920000E-01  1.400847905E-01
  4.511200000E-02  2.395784008E-02
 
[MO]
Sym=     1a  
Ene=   -20.7160
Spin= Alpha
Occup=    2.00000
   1        -0.00096346
   2        -0.00172542
   3         0.00000000
   4         0.00000000
   5        -0.00053173
   6         1.00018809
   7         0.00225545
   8        -0.00000000
   9        -0.00000000
  10        -0.00193957
Sym=     2a  
Ene=    -4.9008
Spin= Alpha
Occup=    2.00000
   1         0.98309875
   2        -0.01363400
   3         0.00000000
   4        -0.00000000
   5         0.00244386
   6        -0.00853690
   7         0.03830606
   8        -0.00000000
   9         0.00000000
  10        -0.03004336
Sym=     3a  
Ene=    -1.4159
Spin= Alpha
Occup=    2.00000
   1        -0.29332635
   2        -0.06298898
   3         0.00000000
   4         0.00000000
   5         0.07213331
   6        -0.00199576
   7         0.99893576
   8        -0.00000000
   9        -0.00000000
  10        -0.23054946
Sym=     4a  
Ene=    -0.7063
Spin= Alpha
Occup=    2.00000
   1        -0.00000000
   2        -0.00000000
   3         0.00353951
   4         0.13519021
   5        -0.00000000
   6         0.00000000
   7         0.00000000
   8         0.02427846
   9         0.92730692
  10        -0.00000000
Sym=     5a  
Ene=    -0.7063
Spin= Alpha
Occup=    2.00000
   1        -0.00000000
   2        -0.00000000
   3         0.13519021
   4        -0.00353951
   5        -0.00000000
   6         0.00000000
   7         0.00000000
   8         0.92730692
   9        -0.02427846
  10        -0.00000000
Sym=     6a  
Ene=    -0.2359
Spin= Alpha
Occup=    0.97681
   1         0.17287248
   2        -0.54507967
   3        -0.00000000
   4        -0.00000000
   5         0.28500022
   6         0.00626425
   7         0.20462652
   8         0.00000000
   9         0.00000000
  10         0.69011009
Sym=     7a  
Ene=     0.0002
Spin= Alpha
Occup=    1.02319
   1         0.24146666
   2         0.69839163
   3         0.00000000
   4         0.00000000
   5        -0.46340727
   6         0.00066402
   7         0.03704362
   8         0.00000000
   9         0.00000000
  10         0.78923952
Sym=     8a  
Ene=     0.2528
Spin= Alpha
Occup=    0.00000
   1        -0.00000000
   2         0.00000000
   3        -0.01960740
   4        -1.13395818
   5        -0.00000000
   6         0.00000000
   7         0.00000000
   8         0.01152053
   9         0.66626889
  10        -0.00000000
Sym=     9a  
Ene=     0.2528
Spin= Alpha
Occup=    0.00000
   1        -0.00000000
   2         0.00000000
   3        -1.13395818
   4         0.01960740
   5        -0.00000000
   6         0.00000000
   7         0.00000000
   8         0.66626889
   9        -0.01152053
  10        -0.00000000
Sym=    10a  
Ene=     0.4425
Spin= Alpha
Occup=    0.00000
   1        -0.30134199
   2        -1.03978886
   3         0.00000000
   4         0.00000000
   5        -1.25758822
   6         0.21475360
   7         1.31087048
   8        -0.00000000
   9        -0.00000000
  10        -0.15368338
