[Molden Format]
[N_Atoms]
                     2
[Atoms] (AU)
C1          1      6           0.00000000      0.00000000      0.00000000
N2          2      7           0.00000000      0.00000000      5.10226054
[Charge] (Mulliken)
  6.132744521377020E-003
 -6.132744521430311E-003
[GTO] (AU)
   1
   s  14
  5.055750100E+04  1.128874000E-04
  7.524785600E+03  5.295373000E-04
  1.694327600E+03  2.450038300E-03
  4.728227900E+02  1.005398470E-02
  1.517107500E+02  3.545398060E-02
  5.391874600E+01  1.044071086E-01
  2.065931100E+01  2.412894918E-01
  8.383976000E+00  3.834225483E-01
  3.577015000E+00  3.078514393E-01
  1.547118000E+00  6.872442990E-02
  6.130130000E-01  2.224445000E-04
  2.460680000E-01  1.976748900E-03
  9.908700000E-02  2.057859400E-03
  3.468000000E-02  4.182020000E-04
   s  14
  5.055750100E+04 -2.507420000E-05
  7.524785600E+03 -1.175945000E-04
  1.694327600E+03 -5.456275000E-04
  4.728227900E+02 -2.245077100E-03
  1.517107500E+02 -8.043471800E-03
  5.391874600E+01 -2.442588710E-02
  2.065931100E+01 -6.136791180E-02
  8.383976000E+00 -1.177767835E-01
  3.577015000E+00 -1.550487783E-01
  1.547118000E+00 -1.933316860E-02
  6.130130000E-01  3.996930678E-01
  2.460680000E-01  5.589420949E-01
  9.908700000E-02  1.711195023E-01
  3.468000000E-02  7.456244600E-03
   p   9
  8.333315500E+01  1.344656000E-03
  1.955761100E+01  1.023555500E-02
  6.080365000E+00  4.520067100E-02
  2.179317000E+00  1.410756198E-01
  8.651500000E-01  3.047388085E-01
  3.619440000E-01  3.995281011E-01
  1.547400000E-01  2.719163432E-01
  6.542900000E-02  5.857669330E-02
  2.290000000E-02 -1.263813000E-04
 
   2
   s  14
  7.476171500E+04  1.182599996E-04
  1.112365400E+04  5.172899983E-04
  2.512685700E+03  2.266659992E-03
  7.037772900E+02  9.145289970E-03
  2.254787900E+02  3.239342989E-02
  7.961581000E+01  9.770792967E-02
  3.023728300E+01  2.317036792E-01
  1.226362200E+01  3.768898887E-01
  5.265086000E+00  3.177420689E-01
  2.333471000E+00  8.211308973E-02
  9.018560000E-01  3.312089989E-03
  3.583360000E-01  3.720819988E-03
  1.410930000E-01  3.165419989E-03
  4.938300000E-02  4.595799985E-04
   s  14
  7.476171500E+04 -2.707000010E-05
  1.112365400E+04 -1.183700004E-04
  2.512685700E+03 -5.203800020E-04
  7.037772900E+02 -2.102930008E-03
  2.254787900E+02 -7.568200028E-03
  7.961581000E+01 -2.346767009E-02
  3.023728300E+01 -6.042901023E-02
  1.226362200E+01 -1.170549104E-01
  5.265086000E+00 -1.555321506E-01
  2.333471000E+00 -2.468935009E-02
  9.018560000E-01  3.625054514E-01
  3.583360000E-01  5.550845021E-01
  1.410930000E-01  2.148376908E-01
  4.938300000E-02  8.983850034E-03
   p   9
  1.266665700E+02  1.233630000E-03
  2.983738900E+01  9.493409996E-03
  9.394038000E+00  4.293961998E-02
  3.405104000E+00  1.362925399E-01
  1.350000000E+00  2.921362499E-01
  5.576960000E-01  3.887887598E-01
  2.324490000E-01  2.946801399E-01
  9.426400000E-02  8.012875997E-02
  3.299200000E-02  5.405199998E-04
 
[MO]
Sym=     1a  
Ene=   -15.5880
Spin= Alpha
Occup=    1.00000
   1        -0.00002794
   2        -0.00037924
   3         0.00000000
   4         0.00000000
   5        -0.00046191
   6         1.00000092
   7        -0.00226668
   8         0.00000000
   9        -0.00000000
  10        -0.00014343
Sym=     1a  
Ene=   -15.4960
Spin= Beta
Occup=    1.00000
   1        -0.00001636
   2        -0.00016749
   3         0.00000000
   4         0.00000000
   5        -0.00015369
   6         0.99996097
   7        -0.00896434
   8        -0.00000000
   9        -0.00000000
  10        -0.00007492
Sym=     2a  
Ene=   -11.2130
Spin= Alpha
Occup=    1.00000
   1         0.99998874
   2        -0.00490111
   3        -0.00000000
   4        -0.00000000
   5         0.00008119
   6        -0.00001760
   7        -0.00018666
   8        -0.00000000
   9         0.00000000
  10         0.00011985
Sym=     2a  
Ene=   -11.2600
Spin= Beta
Occup=    1.00000
   1         1.00000176
   2         0.00009187
   3        -0.00000000
   4        -0.00000000
   5         0.00012264
   6        -0.00002987
   7        -0.00034201
   8        -0.00000000
   9        -0.00000000
  10         0.00028521
Sym=     3a  
Ene=    -1.1189
Spin= Alpha
Occup=    1.00000
   1        -0.00130230
   2         0.00729985
   3        -0.00000000
   4         0.00000000
   5         0.00063786
   6         0.00230348
   7         0.99955644
   8        -0.00000000
   9         0.00000000
  10        -0.00759494
Sym=     3a  
Ene=    -0.7969
Spin= Beta
Occup=    1.00000
   1        -0.00033506
   2         0.97785987
   3         0.00000000
   4         0.00000000
   5         0.01623550
   6        -0.00041072
   7         0.16330365
   8        -0.00000000
   9         0.00000000
  10        -0.01285919
Sym=     4a  
Ene=    -0.5755
Spin= Alpha
Occup=    1.00000
   1        -0.00172490
   2        -0.79121863
   3        -0.00000000
   4         0.00000000
   5        -0.01279363
   6         0.00174350
   7         0.04745414
   8        -0.00000000
   9         0.00000000
  10         0.55620389
Sym=     4a  
Ene=    -0.7013
Spin= Beta
Occup=    1.00000
   1        -0.00130045
   2        -0.20845330
   3        -0.00000000
   4         0.00000000
   5         0.07599548
   6         0.00876334
   7         0.97790065
   8         0.00000000
   9         0.00000000
  10         0.01036808
Sym=     5a  
Ene=    -0.5389
Spin= Alpha
Occup=    1.00000
   1         0.00000000
   2         0.00000000
   3         0.00760631
   4        -0.00435974
   5        -0.00000000
   6        -0.00000000
   7         0.00000000
   8         0.86733970
   9        -0.49713677
  10         0.00000000
Sym=     5a  
Ene=    -0.4086
Spin= Beta
Occup=    1.00000
   1         0.00000000
   2        -0.00000000
   3         0.49705596
   4         0.86719872
   5         0.00000000
   6        -0.00000000
   7        -0.00000000
   8         0.00641326
   9         0.01118903
  10        -0.00000000
Sym=     6a  
Ene=    -0.5384
Spin= Alpha
Occup=    1.00000
   1         0.00000000
   2         0.00000000
   3         0.00354121
   4         0.00617825
   5        -0.00000000
   6         0.00000000
   7        -0.00000000
   8         0.49716661
   9         0.86739177
  10         0.00000000
Sym=     6a  
Ene=    -0.4039
Spin= Beta
Occup=    1.00000
   1        -0.00009866
   2        -0.00304039
   3        -0.00000000
   4        -0.00000000
   5         0.99249744
   6        -0.00672555
   7        -0.15937249
   8        -0.00000000
   9        -0.00000000
  10        -0.06068867
Sym=     7a  
Ene=    -0.5168
Spin= Alpha
Occup=    1.00000
   1         0.00638955
   2         0.61723217
   3         0.00000000
   4        -0.00000000
   5        -0.03251633
   6        -0.00100421
   7        -0.02304702
   8        -0.00000000
   9        -0.00000000
  10         0.82926453
Sym=     7a  
Ene=     0.1057
Spin= Beta
Occup=    0.00000
   1         0.00000000
   2        -0.00000000
   3         0.86266338
   4        -0.49445642
   5         0.00000000
   6        -0.00000000
   7        -0.00000000
   8         0.07094259
   9        -0.04066246
  10         0.00000000
Sym=     8a  
Ene=     0.1685
Spin= Alpha
Occup=    0.00000
   1        -0.00000000
   2        -0.00000000
   3         0.86790984
   4        -0.49746355
   5         0.00000000
   6        -0.00000000
   7        -0.00000000
   8        -0.03236028
   9         0.01854808
  10        -0.00000000
Sym=     8a  
Ene=     0.2627
Spin= Beta
Occup=    0.00000
   1         0.00000000
   2         0.00000000
   3        -0.02060013
   4        -0.03594043
   5         0.00000000
   6        -0.00000000
   7        -0.00000000
   8         0.49744132
   9         0.86787104
  10         0.00000000
Sym=     9a  
Ene=     0.2307
Spin= Alpha
Occup=    0.00000
   1         0.00000000
   2        -0.00000000
   3         0.49747005
   4         0.86792118
   5         0.00000000
   6        -0.00000000
   7        -0.00000000
   8        -0.01773007
   9        -0.03093312
  10         0.00000000
Sym=     9a  
Ene=     0.2636
Spin= Beta
Occup=    0.00000
   1         0.00000000
   2         0.00000000
   3        -0.09558889
   4         0.05478909
   5        -0.00000000
   6         0.00000000
   7         0.00000000
   8         0.86503901
   9        -0.49581807
  10         0.00000000
Sym=    10a  
Ene=     0.2401
Spin= Alpha
Occup=    0.00000
   1         0.00072228
   2         0.02140379
   3        -0.00000000
   4        -0.00000000
   5         1.00849485
   6        -0.00587781
   7        -0.08617586
   8         0.00000000
   9         0.00000000
  10         0.13918164
Sym=    10a  
Ene=     0.2724
Spin= Beta
Occup=    0.00000
   1         0.00426090
   2         0.08869081
   3        -0.00000000
   4         0.00000000
   5         0.16490411
   6        -0.00126353
   7        -0.02982886
   8        -0.00000000
   9        -0.00000000
  10         1.00623835
