[Molden Format]
[N_Atoms]
                     2
[Atoms] (AU)
C1          1      6           0.00000000      0.00000000      0.00000000
F2          2      9           0.00000000      0.00000000      2.64561657
[Charge] (Mulliken)
  0.347135982743144     
 -0.347135982743168     
[GTO] (AU)
   1
   s  14
  5.055750100E+04  1.128874000E-04
  7.524785600E+03  5.295373000E-04
  1.694327600E+03  2.450038300E-03
  4.728227900E+02  1.005398470E-02
  1.517107500E+02  3.545398060E-02
  5.391874600E+01  1.044071086E-01
  2.065931100E+01  2.412894918E-01
  8.383976000E+00  3.834225483E-01
  3.577015000E+00  3.078514393E-01
  1.547118000E+00  6.872442990E-02
  6.130130000E-01  2.224445000E-04
  2.460680000E-01  1.976748900E-03
  9.908700000E-02  2.057859400E-03
  3.468000000E-02  4.182020000E-04
   s  14
  5.055750100E+04 -2.507420000E-05
  7.524785600E+03 -1.175945000E-04
  1.694327600E+03 -5.456275000E-04
  4.728227900E+02 -2.245077100E-03
  1.517107500E+02 -8.043471800E-03
  5.391874600E+01 -2.442588710E-02
  2.065931100E+01 -6.136791180E-02
  8.383976000E+00 -1.177767835E-01
  3.577015000E+00 -1.550487783E-01
  1.547118000E+00 -1.933316860E-02
  6.130130000E-01  3.996930678E-01
  2.460680000E-01  5.589420949E-01
  9.908700000E-02  1.711195023E-01
  3.468000000E-02  7.456244600E-03
   p   9
  8.333315500E+01  1.344656000E-03
  1.955761100E+01  1.023555500E-02
  6.080365000E+00  4.520067100E-02
  2.179317000E+00  1.410756198E-01
  8.651500000E-01  3.047388085E-01
  3.619440000E-01  3.995281011E-01
  1.547400000E-01  2.719163432E-01
  6.542900000E-02  5.857669330E-02
  2.290000000E-02 -1.263813000E-04
 
   2
   s  14
  1.031094600E+05  1.713099991E-04
  1.528100700E+04  7.123999962E-04
  3.441539200E+03  2.990479984E-03
  9.670948300E+02  1.164036994E-02
  3.140353400E+02  3.968642979E-02
  1.134423000E+02  1.128546094E-01
  4.464472700E+01  2.473650687E-01
  1.894287400E+01  3.672702681E-01
  8.532743000E+00  2.896286985E-01
  3.919401000E+00  7.786681959E-02
  1.568157000E+00  4.562139976E-03
  6.232900000E-01  2.468879987E-03
  2.408610000E-01  1.106309994E-03
  8.430100000E-02  1.739699991E-04
   s  14
  1.031094600E+05 -4.044999995E-05
  1.528100700E+04 -1.682299998E-04
  3.441539200E+03 -7.084299991E-04
  9.670948300E+02 -2.767999996E-03
  3.140353400E+02 -9.611379987E-03
  1.134423000E+02 -2.833957996E-02
  4.464472700E+01 -6.839343991E-02
  1.894287400E+01 -1.237379298E-01
  8.532743000E+00 -1.512859698E-01
  3.919401000E+00 -9.099909988E-03
  1.568157000E+00  3.716257695E-01
  6.232900000E-01  5.500214393E-01
  2.408610000E-01  2.092318697E-01
  8.430100000E-02  8.074639989E-03
   p   9
  2.453302900E+02  1.024860004E-03
  5.691900500E+01  8.344290032E-03
  1.760456800E+01  4.078927016E-02
  6.274995000E+00  1.351370605E-01
  2.447030000E+00  2.798830811E-01
  9.950600000E-01  3.597966414E-01
  4.039730000E-01  3.055347412E-01
  1.548100000E-01  1.354703905E-01
  5.418400000E-02  2.804449011E-02
 
[MO]
Sym=     1a  
Ene=   -26.3120
Spin= Alpha
Occup=    1.00000
   1        -0.00009174
   2        -0.00057085
   3        -0.00000000
   4        -0.00000000
   5        -0.00041181
   6         1.00002777
   7        -0.00253536
   8        -0.00000000
   9         0.00000000
  10        -0.00110620
Sym=     1a  
Ene=   -26.3090
Spin= Beta
Occup=    1.00000
   1        -0.00008508
   2        -0.00052347
   3        -0.00000000
   4        -0.00000000
   5        -0.00037954
   6         1.00002497
   7        -0.00263559
   8        -0.00000000
   9         0.00000000
  10        -0.00110130
Sym=     2a  
Ene=   -11.4460
Spin= Alpha
Occup=    1.00000
   1         1.00002187
   2        -0.00133610
   3        -0.00000000
   4        -0.00000000
   5         0.00249393
   6        -0.00024083
   7        -0.00120377
   8         0.00000000
   9         0.00000000
  10         0.00007952
Sym=     2a  
Ene=   -11.4210
Spin= Beta
Occup=    1.00000
   1         0.99998601
   2        -0.00401613
   3        -0.00000000
   4        -0.00000000
   5         0.00213324
   6        -0.00016568
   7        -0.00056588
   8         0.00000000
   9         0.00000000
  10        -0.00028599
Sym=     3a  
Ene=    -1.6524
Spin= Alpha
Occup=    1.00000
   1        -0.02130089
   2         0.12726481
   3         0.00000000
   4        -0.00000000
   5         0.09702616
   6        -0.00472563
   7         0.90933189
   8         0.00000000
   9        -0.00000000
  10        -0.10854667
Sym=     3a  
Ene=    -1.6411
Spin= Beta
Occup=    1.00000
   1        -0.02115127
   2         0.10344646
   3         0.00000000
   4        -0.00000000
   5         0.09321714
   6        -0.00390896
   7         0.92002997
   8         0.00000000
   9        -0.00000000
  10        -0.11070593
Sym=     4a  
Ene=    -0.8961
Spin= Alpha
Occup=    1.00000
   1         0.01822145
   2        -0.67862801
   3        -0.00000000
   4         0.00000000
   5        -0.08804911
   6         0.02125833
   7         0.40668601
   8        -0.00000000
   9         0.00000000
  10         0.54206863
Sym=     4a  
Ene=    -0.8354
Spin= Beta
Occup=    1.00000
   1         0.02429566
   2        -0.52210266
   3        -0.00000000
   4         0.00000000
   5        -0.12457725
   6         0.01926668
   7         0.36793483
   8        -0.00000000
   9         0.00000000
  10         0.67779555
Sym=     5a  
Ene=    -0.7363
Spin= Alpha
Occup=    1.00000
   1         0.00000000
   2         0.00000000
   3         0.28172354
   4         0.04309764
   5        -0.00000000
   6         0.00000000
   7        -0.00000000
   8         0.89467136
   9         0.13686548
  10         0.00000000
Sym=     5a  
Ene=    -0.6901
Spin= Beta
Occup=    1.00000
   1        -0.00000000
   2         0.00000000
   3        -0.02366438
   4         0.15469088
   5         0.00000000
   6        -0.00000000
   7        -0.00000000
   8        -0.14485711
   9         0.94691158
  10        -0.00000000
Sym=     6a  
Ene=    -0.6881
Spin= Alpha
Occup=    1.00000
   1         0.00000000
   2         0.00000000
   3        -0.02705055
   4         0.17682581
   5         0.00000000
   6        -0.00000000
   7        -0.00000000
   8        -0.14364909
   9         0.93901497
  10         0.00000000
Sym=     6a  
Ene=    -0.6810
Spin= Beta
Occup=    1.00000
   1         0.00000000
   2         0.00000000
   3         0.13077846
   4         0.02000629
   5        -0.00000000
   6         0.00000000
   7         0.00000000
   8         0.95488666
   9         0.14607712
  10         0.00000000
Sym=     7a  
Ene=    -0.5865
Spin= Alpha
Occup=    1.00000
   1         0.03234483
   2         0.71308351
   3         0.00000000
   4         0.00000000
   5        -0.46444655
   6         0.00437706
   7         0.03712769
   8        -0.00000000
   9        -0.00000000
  10         0.63481729
Sym=     7a  
Ene=    -0.5370
Spin= Beta
Occup=    1.00000
   1         0.02891370
   2         0.80931038
   3         0.00000000
   4         0.00000000
   5        -0.46671431
   6         0.00199492
   7        -0.00774244
   8        -0.00000000
   9        -0.00000000
  10         0.51032508
Sym=     8a  
Ene=    -0.4425
Spin= Alpha
Occup=    1.00000
   1         0.00000000
   2         0.00000000
   3        -0.96726389
   4        -0.14797057
   5        -0.00000000
   6         0.00000000
   7         0.00000000
   8         0.46317463
   9         0.07085576
  10         0.00000000
Sym=     8a  
Ene=     0.0929
Spin= Beta
Occup=    0.00000
   1         0.00000000
   2         0.00000000
   3        -0.15229148
   4         0.99550907
   5         0.00000000
   6        -0.00000000
   7        -0.00000000
   8         0.05262239
   9        -0.34398552
  10        -0.00000000
Sym=     9a  
Ene=     0.0587
Spin= Alpha
Occup=    0.00000
   1         0.00000000
   2         0.00000000
   3        -0.15172661
   4         0.99181663
   5         0.00000000
   6        -0.00000000
   7        -0.00000000
   8         0.05583578
   9        -0.36499106
  10         0.00000000
Sym=     9a  
Ene=     0.1521
Spin= Beta
Occup=    0.00000
   1        -0.00000000
   2        -0.00000000
   3         0.99893172
   4         0.15281507
   5         0.00000000
   6         0.00000000
   7        -0.00000000
   8        -0.32118384
   9        -0.04913422
  10        -0.00000000
Sym=    10a  
Ene=     0.3446
Spin= Alpha
Occup=    0.00000
   1         0.04317161
   2         0.49597007
   3        -0.00000000
   4        -0.00000000
   5         1.02480893
   6        -0.05741160
   7        -0.54931433
   8        -0.00000000
   9        -0.00000000
  10         0.71427915
Sym=    10a  
Ene=     0.3811
Spin= Beta
Occup=    0.00000
   1         0.04351777
   2         0.54121786
   3        -0.00000000
   4        -0.00000000
   5         1.02033386
   6        -0.05834953
   7        -0.55992156
   8        -0.00000000
   9        -0.00000000
  10         0.69764899
