[Molden Format]
[N_Atoms]
                     2
[Atoms] (AU)
N1          1      7           0.00000000      0.00000000      0.00000000
N2          2      7           0.00000000      0.00000000      1.51178090
[Charge] (Mulliken)
  1.190159082398168E-013
 -1.270095140171179E-013
[GTO] (AU)
   1
   s  14
  7.476171500E+04  1.182599996E-04
  1.112365400E+04  5.172899983E-04
  2.512685700E+03  2.266659992E-03
  7.037772900E+02  9.145289970E-03
  2.254787900E+02  3.239342989E-02
  7.961581000E+01  9.770792967E-02
  3.023728300E+01  2.317036792E-01
  1.226362200E+01  3.768898887E-01
  5.265086000E+00  3.177420689E-01
  2.333471000E+00  8.211308973E-02
  9.018560000E-01  3.312089989E-03
  3.583360000E-01  3.720819988E-03
  1.410930000E-01  3.165419989E-03
  4.938300000E-02  4.595799985E-04
   s  14
  7.476171500E+04 -2.707000010E-05
  1.112365400E+04 -1.183700004E-04
  2.512685700E+03 -5.203800020E-04
  7.037772900E+02 -2.102930008E-03
  2.254787900E+02 -7.568200028E-03
  7.961581000E+01 -2.346767009E-02
  3.023728300E+01 -6.042901023E-02
  1.226362200E+01 -1.170549104E-01
  5.265086000E+00 -1.555321506E-01
  2.333471000E+00 -2.468935009E-02
  9.018560000E-01  3.625054514E-01
  3.583360000E-01  5.550845021E-01
  1.410930000E-01  2.148376908E-01
  4.938300000E-02  8.983850034E-03
   p   9
  1.266665700E+02  1.233630000E-03
  2.983738900E+01  9.493409996E-03
  9.394038000E+00  4.293961998E-02
  3.405104000E+00  1.362925399E-01
  1.350000000E+00  2.921362499E-01
  5.576960000E-01  3.887887598E-01
  2.324490000E-01  2.946801399E-01
  9.426400000E-02  8.012875997E-02
  3.299200000E-02  5.405199998E-04
 
   2
   s  14
  7.476171500E+04  1.182599996E-04
  1.112365400E+04  5.172899983E-04
  2.512685700E+03  2.266659992E-03
  7.037772900E+02  9.145289970E-03
  2.254787900E+02  3.239342989E-02
  7.961581000E+01  9.770792967E-02
  3.023728300E+01  2.317036792E-01
  1.226362200E+01  3.768898887E-01
  5.265086000E+00  3.177420689E-01
  2.333471000E+00  8.211308973E-02
  9.018560000E-01  3.312089989E-03
  3.583360000E-01  3.720819988E-03
  1.410930000E-01  3.165419989E-03
  4.938300000E-02  4.595799985E-04
   s  14
  7.476171500E+04 -2.707000010E-05
  1.112365400E+04 -1.183700004E-04
  2.512685700E+03 -5.203800020E-04
  7.037772900E+02 -2.102930008E-03
  2.254787900E+02 -7.568200028E-03
  7.961581000E+01 -2.346767009E-02
  3.023728300E+01 -6.042901023E-02
  1.226362200E+01 -1.170549104E-01
  5.265086000E+00 -1.555321506E-01
  2.333471000E+00 -2.468935009E-02
  9.018560000E-01  3.625054514E-01
  3.583360000E-01  5.550845021E-01
  1.410930000E-01  2.148376908E-01
  4.938300000E-02  8.983850034E-03
   p   9
  1.266665700E+02  1.233630000E-03
  2.983738900E+01  9.493409996E-03
  9.394038000E+00  4.293961998E-02
  3.405104000E+00  1.362925399E-01
  1.350000000E+00  2.921362499E-01
  5.576960000E-01  3.887887598E-01
  2.324490000E-01  2.946801399E-01
  9.426400000E-02  8.012875997E-02
  3.299200000E-02  5.405199998E-04
 
[MO]
Sym=     1a  
Ene=   -16.0440
Spin= Alpha
Occup=    1.00000
   1         0.70478947
   2        -0.00460163
   3        -0.00000000
   4         0.00000000
   5         0.00668215
   6         0.70478947
   7        -0.00460163
   8        -0.00000000
   9        -0.00000000
  10        -0.00668215
Sym=     1a  
Ene=   -16.0440
Spin= Beta
Occup=    1.00000
   1         0.70478947
   2        -0.00460163
   3        -0.00000000
   4         0.00000000
   5         0.00668215
   6         0.70478947
   7        -0.00460163
   8        -0.00000000
   9        -0.00000000
  10        -0.00668215
Sym=     2a  
Ene=   -16.0090
Spin= Alpha
Occup=    1.00000
   1        -0.71121069
   2        -0.00784590
   3        -0.00000000
   4         0.00000000
   5        -0.00840726
   6         0.71121069
   7         0.00784590
   8        -0.00000000
   9        -0.00000000
  10        -0.00840726
Sym=     2a  
Ene=   -16.0090
Spin= Beta
Occup=    1.00000
   1        -0.71121069
   2        -0.00784590
   3        -0.00000000
   4         0.00000000
   5        -0.00840726
   6         0.71121069
   7         0.00784590
   8        -0.00000000
   9        -0.00000000
  10        -0.00840726
Sym=     3a  
Ene=    -1.8541
Spin= Alpha
Occup=    1.00000
   1        -0.11281109
   2         0.37329487
   3         0.00000000
   4         0.00000000
   5         0.37419804
   6        -0.11281109
   7         0.37329487
   8         0.00000000
   9         0.00000000
  10        -0.37419804
Sym=     3a  
Ene=    -1.8541
Spin= Beta
Occup=    1.00000
   1        -0.11281109
   2         0.37329487
   3         0.00000000
   4         0.00000000
   5         0.37419804
   6        -0.11281109
   7         0.37329487
   8         0.00000000
   9         0.00000000
  10        -0.37419804
Sym=     4a  
Ene=    -0.9175
Spin= Alpha
Occup=    1.00000
   1        -0.00000000
   2        -0.00000000
   3        -0.27864367
   4         0.50390070
   5        -0.00000000
   6         0.00000000
   7         0.00000000
   8        -0.27864367
   9         0.50390070
  10         0.00000000
Sym=     4a  
Ene=    -0.9175
Spin= Beta
Occup=    1.00000
   1        -0.00000000
   2        -0.00000000
   3        -0.27864367
   4         0.50390070
   5        -0.00000000
   6         0.00000000
   7         0.00000000
   8        -0.27864367
   9         0.50390070
  10         0.00000000
Sym=     5a  
Ene=    -0.9175
Spin= Alpha
Occup=    1.00000
   1        -0.00000000
   2         0.00000000
   3         0.50390070
   4         0.27864367
   5        -0.00000000
   6         0.00000000
   7        -0.00000000
   8         0.50390070
   9         0.27864367
  10        -0.00000000
Sym=     5a  
Ene=    -0.9175
Spin= Beta
Occup=    1.00000
   1        -0.00000000
   2         0.00000000
   3         0.50390070
   4         0.27864367
   5        -0.00000000
   6         0.00000000
   7        -0.00000000
   8         0.50390070
   9         0.27864367
  10        -0.00000000
Sym=     6a  
Ene=    -0.7830
Spin= Alpha
Occup=    1.00000
   1        -0.01834504
   2        -0.65711890
   3         0.00000000
   4        -0.00000000
   5         0.35012051
   6         0.01834504
   7         0.65711890
   8         0.00000000
   9        -0.00000000
  10         0.35012051
Sym=     6a  
Ene=    -0.7830
Spin= Beta
Occup=    1.00000
   1        -0.01834504
   2        -0.65711890
   3         0.00000000
   4        -0.00000000
   5         0.35012051
   6         0.01834504
   7         0.65711890
   8         0.00000000
   9        -0.00000000
  10         0.35012051
Sym=     7a  
Ene=    -0.7451
Spin= Alpha
Occup=    1.00000
   1         0.06984936
   2         0.46573335
   3         0.00000000
   4        -0.00000000
   5        -0.65169690
   6         0.06984936
   7         0.46573335
   8         0.00000000
   9        -0.00000000
  10         0.65169690
Sym=     7a  
Ene=    -0.7451
Spin= Beta
Occup=    1.00000
   1         0.06984936
   2         0.46573335
   3         0.00000000
   4        -0.00000000
   5        -0.65169690
   6         0.06984936
   7         0.46573335
   8         0.00000000
   9        -0.00000000
  10         0.65169690
Sym=     8a  
Ene=     0.3405
Spin= Alpha
Occup=    0.00000
   1         0.00000000
   2         0.00000000
   3         0.34243969
   4        -0.94818717
   5        -0.00000000
   6         0.00000000
   7         0.00000000
   8        -0.34243969
   9         0.94818717
  10         0.00000000
Sym=     8a  
Ene=     0.3405
Spin= Beta
Occup=    0.00000
   1         0.00000000
   2         0.00000000
   3         0.34243969
   4        -0.94818717
   5        -0.00000000
   6         0.00000000
   7         0.00000000
   8        -0.34243969
   9         0.94818717
  10         0.00000000
Sym=     9a  
Ene=     0.3405
Spin= Alpha
Occup=    0.00000
   1         0.00000000
   2         0.00000000
   3        -0.94818717
   4        -0.34243969
   5         0.00000000
   6        -0.00000000
   7        -0.00000000
   8         0.94818717
   9         0.34243969
  10         0.00000000
Sym=     9a  
Ene=     0.3405
Spin= Beta
Occup=    0.00000
   1         0.00000000
   2         0.00000000
   3        -0.94818717
   4        -0.34243969
   5         0.00000000
   6        -0.00000000
   7        -0.00000000
   8         0.94818717
   9         0.34243969
  10         0.00000000
Sym=    10a  
Ene=     2.1716
Spin= Alpha
Occup=    0.00000
   1         0.64651763
   2         2.75845964
   3         0.00000000
   4         0.00000000
   5         1.72586355
   6        -0.64651763
   7        -2.75845964
   8        -0.00000000
   9         0.00000000
  10         1.72586355
Sym=    10a  
Ene=     2.1716
Spin= Beta
Occup=    0.00000
   1         0.64651763
   2         2.75845964
   3         0.00000000
   4         0.00000000
   5         1.72586355
   6        -0.64651763
   7        -2.75845964
   8        -0.00000000
   9         0.00000000
  10         1.72586355
