[Molden Format]
[N_Atoms]
                     2
[Atoms] (AU)
N1          1      7           0.00000000      0.00000000      0.00000000
N2          2      7           0.00000000      0.00000000      1.51178090
[Charge] (Mulliken)
  0.999999999999925     
   1.00000000000006     
[GTO] (AU)
   1
   s  14
  7.476171500E+04  1.182599996E-04
  1.112365400E+04  5.172899983E-04
  2.512685700E+03  2.266659992E-03
  7.037772900E+02  9.145289970E-03
  2.254787900E+02  3.239342989E-02
  7.961581000E+01  9.770792967E-02
  3.023728300E+01  2.317036792E-01
  1.226362200E+01  3.768898887E-01
  5.265086000E+00  3.177420689E-01
  2.333471000E+00  8.211308973E-02
  9.018560000E-01  3.312089989E-03
  3.583360000E-01  3.720819988E-03
  1.410930000E-01  3.165419989E-03
  4.938300000E-02  4.595799985E-04
   s  14
  7.476171500E+04 -2.707000010E-05
  1.112365400E+04 -1.183700004E-04
  2.512685700E+03 -5.203800020E-04
  7.037772900E+02 -2.102930008E-03
  2.254787900E+02 -7.568200028E-03
  7.961581000E+01 -2.346767009E-02
  3.023728300E+01 -6.042901023E-02
  1.226362200E+01 -1.170549104E-01
  5.265086000E+00 -1.555321506E-01
  2.333471000E+00 -2.468935009E-02
  9.018560000E-01  3.625054514E-01
  3.583360000E-01  5.550845021E-01
  1.410930000E-01  2.148376908E-01
  4.938300000E-02  8.983850034E-03
   p   9
  1.266665700E+02  1.233630000E-03
  2.983738900E+01  9.493409996E-03
  9.394038000E+00  4.293961998E-02
  3.405104000E+00  1.362925399E-01
  1.350000000E+00  2.921362499E-01
  5.576960000E-01  3.887887598E-01
  2.324490000E-01  2.946801399E-01
  9.426400000E-02  8.012875997E-02
  3.299200000E-02  5.405199998E-04
 
   2
   s  14
  7.476171500E+04  1.182599996E-04
  1.112365400E+04  5.172899983E-04
  2.512685700E+03  2.266659992E-03
  7.037772900E+02  9.145289970E-03
  2.254787900E+02  3.239342989E-02
  7.961581000E+01  9.770792967E-02
  3.023728300E+01  2.317036792E-01
  1.226362200E+01  3.768898887E-01
  5.265086000E+00  3.177420689E-01
  2.333471000E+00  8.211308973E-02
  9.018560000E-01  3.312089989E-03
  3.583360000E-01  3.720819988E-03
  1.410930000E-01  3.165419989E-03
  4.938300000E-02  4.595799985E-04
   s  14
  7.476171500E+04 -2.707000010E-05
  1.112365400E+04 -1.183700004E-04
  2.512685700E+03 -5.203800020E-04
  7.037772900E+02 -2.102930008E-03
  2.254787900E+02 -7.568200028E-03
  7.961581000E+01 -2.346767009E-02
  3.023728300E+01 -6.042901023E-02
  1.226362200E+01 -1.170549104E-01
  5.265086000E+00 -1.555321506E-01
  2.333471000E+00 -2.468935009E-02
  9.018560000E-01  3.625054514E-01
  3.583360000E-01  5.550845021E-01
  1.410930000E-01  2.148376908E-01
  4.938300000E-02  8.983850034E-03
   p   9
  1.266665700E+02  1.233630000E-03
  2.983738900E+01  9.493409996E-03
  9.394038000E+00  4.293961998E-02
  3.405104000E+00  1.362925399E-01
  1.350000000E+00  2.921362499E-01
  5.576960000E-01  3.887887598E-01
  2.324490000E-01  2.946801399E-01
  9.426400000E-02  8.012875997E-02
  3.299200000E-02  5.405199998E-04
 
[MO]
Sym=     1a  
Ene=   -17.4530
Spin= Alpha
Occup=    2.00000
   1         0.70505720
   2        -0.00549295
   3         0.00000000
   4         0.00000000
   5         0.00578663
   6         0.70505720
   7        -0.00549295
   8        -0.00000000
   9        -0.00000000
  10        -0.00578663
Sym=     2a  
Ene=   -17.4200
Spin= Alpha
Occup=    2.00000
   1        -0.70998821
   2        -0.00180689
   3         0.00000000
   4        -0.00000000
   5        -0.00572226
   6         0.70998821
   7         0.00180689
   8        -0.00000000
   9         0.00000000
  10        -0.00572226
Sym=     3a  
Ene=    -2.9505
Spin= Alpha
Occup=    2.00000
   1         0.11523384
   2        -0.34376129
   3        -0.00000000
   4         0.00000000
   5        -0.41380555
   6         0.11523384
   7        -0.34376129
   8        -0.00000000
   9        -0.00000000
  10         0.41380555
Sym=     4a  
Ene=    -1.9280
Spin= Alpha
Occup=    2.00000
   1        -0.00000000
   2         0.00000000
   3        -0.30397287
   4         0.48903855
   5         0.00000000
   6        -0.00000000
   7        -0.00000000
   8        -0.30397287
   9         0.48903855
  10        -0.00000000
Sym=     5a  
Ene=    -1.9280
Spin= Alpha
Occup=    2.00000
   1         0.00000000
   2         0.00000000
   3         0.48903855
   4         0.30397287
   5        -0.00000000
   6         0.00000000
   7         0.00000000
   8         0.48903855
   9         0.30397287
  10         0.00000000
Sym=     6a  
Ene=    -1.5008
Spin= Alpha
Occup=    0.93594
   1         0.06284090
   2         0.48793011
   3        -0.00000000
   4        -0.00000000
   5        -0.62730309
   6         0.06284090
   7         0.48793011
   8        -0.00000000
   9        -0.00000000
  10         0.62730309
Sym=     7a  
Ene=    -0.0095
Spin= Alpha
Occup=    1.06406
   1        -0.01538909
   2        -0.64018267
   3         0.00000000
   4        -0.00000000
   5         0.36069676
   6         0.01538909
   7         0.64018267
   8        -0.00000000
   9         0.00000000
  10         0.36069676
Sym=     8a  
Ene=    -0.7462
Spin= Alpha
Occup=    0.00000
   1         0.00000000
   2         0.00000000
   3         0.29743980
   4        -0.96325148
   5         0.00000000
   6        -0.00000000
   7        -0.00000000
   8        -0.29743980
   9         0.96325148
  10         0.00000000
Sym=     9a  
Ene=    -0.7462
Spin= Alpha
Occup=    0.00000
   1         0.00000000
   2         0.00000000
   3        -0.96325148
   4        -0.29743980
   5         0.00000000
   6        -0.00000000
   7         0.00000000
   8         0.96325148
   9         0.29743980
  10         0.00000000
Sym=    10a  
Ene=     1.0168
Spin= Alpha
Occup=    0.00000
   1         0.64793685
   2         2.76244987
   3         0.00000000
   4         0.00000000
   5         1.72369520
   6        -0.64793685
   7        -2.76244987
   8        -0.00000000
   9        -0.00000000
  10         1.72369520
