   This run of MOLCAS is using the pymolcas driver

                             OPE
                             OPE          NMOL  CASOP  ENMOLC A   SO
                 OPE        NMOLC        AS  OP EN  MO LC     AS  OP
                OPENM       OL CA        SO  PE NM  OL CA     SOP EN
                OP EN      MO   LC       AS  OP ENMOL  CASO   PENMOL
                OP  EN     MO   LC       AS  OP EN     MO     LC ASO
               OP   E  NMOL  C  AS       OP  EN MO     LC     AS  OP
               OP  E   NMO   LC AS        OPEN  MO     LCASOP EN   M
               O  PEN   MO  LCA  SO
            OPE   NMO   L   CAS    OP
        OPENMOL  CASOP     ENMOL   CASOPE
     OPENMOLCA   SOPENMOLCASOPEN   MOLCASOPE
    OPENMOLCAS   OP           EN   MOL    CAS
    OPENMOLCAS       OP  ENM        O     LCA
    OPENMOLCAS    OPEN  MOLCASO     P  E  NMO
    OPENMOLCAS     OP               E  N  MOL
    OPENMOLCA   SO           PENM   O  L  CAS    OPEN    MO    LCAS
    OPENMOLCA   SOP           ENM   O  L  CAS   OP  EN  MOLC  AS   O
    OPENMOLCA   SOPE           NM      O  LCA   S      OP  EN MO
    OPENMOLC                AS         O  PEN   M      OL  CA  SOPE
    OPENMO        LCASOPE  NMOL        C  ASO   P      ENMOLC     AS
    OPE     NMO      LCA  SO     P     E   NM   OL  CA SO  PE N   MO
          OPENMOLCA            SOPE   NMO        LCAS  O    P  ENMO
     OPENMOLCASOPENMOLCASOPENMOLCASOPENMOLCA
        OPENMOLCASOPENMOLCASOPENMOLCASOPE
            OPENMOLCASOPENMOLCASOPENM
               OPENMOLCASOPENMOLCA        version: 24.02
                   OPENMOLCASO
                       OPE                tag: 126-g611b04c8f

 OpenMolcas is free software; you can redistribute it and/or modify it
 under the terms of the GNU Lesser General Public License version 2.1.
 OpenMolcas is distributed in the hope that it will be useful, but it
 is provided "as is" and without any express or implied warranties.
 For more details see the full text of the license in the file
 LICENSE or in <http://www.gnu.org/licenses/>.

                 Copyright (C) The OpenMolcas Authors
           For the author list and the recommended citation,
                   consult the file CONTRIBUTORS.md

           *************************************************
           * pymolcas version py2.28                       *
           *   build c4a6d18ded8cb6cad61d2372a9abd97c      *
           *   (after the EMIL interpreter by V. Veryazov) *
           *************************************************

configuration info
------------------
Host name: debian (Linux)
C Compiler ID: GNU
C flags: -std=gnu99
Fortran Compiler ID: Intel
Fortran flags: -fpp -i8 -heap-arrays
Definitions: _MOLCAS_;_I8_;_LINUX_
Parallel: OFF (GA=OFF)


   -----------------------------------------------------------------
  |
  |              Project: 0.80
  |       Submitted from: /home/grierjones/DDCASPT2/delta_ML/NN/0.80
  |         Scratch area: /tmp/0.80
  |      Save outputs to: /home/grierjones/DDCASPT2/delta_ML/NN/0.80
  |               Molcas: /usr/local
  |
  | Scratch area is empty
  |
  |       MOLCAS_DRIVER = /usr/local/pymolcas
  | MOLCAS_KEEP_WORKDIR = NO
  |  MOLCAS_NEW_WORKDIR = YES
  |       MOLCAS_NPROCS = 1
  |       MOLCAS_SOURCE = /usr/local
  |    MOLCAS_STRUCTURE = 0
  |
   -----------------------------------------------------------------

++ ---------   Input file   ---------

&GATEWAY
coord=0.80.xyz
Basis = ANO-RCC-MB
Group = nosymm
End of Input

&SEWARD
End of Input

&SCF
UHF

&MBPT2
Frozen
0

&RASSCF
Title= RASSCF
FileOrb
/home/grierjones/DDCASPT2/delta_ML/NN/0.70/0.70.RasOrb

NACTEL
2 0 0
Inactive
6
RAS2
2
Symmetry
1
Spin
1
orblisting
all
ITERation
200 100
CIMX
200
SDAV
500

&CASPT2
Imaginary Shift
0.0
Frozen
0

-- ----------------------------------

--- Start Module: gateway at Thu Apr 25 14:04:51 2024 ---
 
()()()()()()()()()()()()()()()()()()()()()()()()()()()()()()()()()()()()()()()()()()()()()()()()()()

                                              &GATEWAY

                                   only a single process is used
                       available to each process: 2.0 GB of memory, 1 thread?
                                            pid: 115607
()()()()()()()()()()()()()()()()()()()()()()()()()()()()()()()()()()()()()()()()()()()()()()()()()()
 
 
++    Symmetry information:
      ---------------------
 
                    Character Table for C1 
 
                             E  
                    a        1  x, y, xy, Rz, z, xz, Ry, yz, Rx, I
--
 
 
++    Basis set information:
      ----------------------
 
 
      Basis set label: N.ANO-RCC...2S1P.
 
      Electronic valence basis set:
      ------------------
      Associated Effective Charge   7.000000 au
      Associated Actual Charge      7.000000 au
      Nuclear Model: Point charge
 
      Shell  nPrim  nBasis  Cartesian Spherical Contaminant
         s      14       2        X                  
         p       9       1        X                  
--
 
 
++    Molecular structure info:
      -------------------------
 
                    ************************************************ 
                    **** Cartesian Coordinates / Bohr, Angstrom **** 
                    ************************************************ 
 
     Center  Label                x              y              z                     x              y              z
        1      N1               0.000000       0.000000       0.000000              0.000000       0.000000       0.000000
        2      N2               0.000000       0.000000       1.511781              0.000000       0.000000       0.800000
--
 
 
            Nuclear Potential Energy             32.41210417 au
 
--- Stop Module: gateway at Thu Apr 25 14:04:52 2024 /rc=_RC_ALL_IS_WELL_ ---
*** files: xmldump
    saved to directory /home/grierjones/DDCASPT2/delta_ML/NN/0.80

--- Start Module: seward at Thu Apr 25 14:04:52 2024 ---
 
()()()()()()()()()()()()()()()()()()()()()()()()()()()()()()()()()()()()()()()()()()()()()()()()()()

                                              &SEWARD

                                   only a single process is used
                       available to each process: 2.0 GB of memory, 1 thread?
                                            pid: 115610
()()()()()()()()()()()()()()()()()()()()()()()()()()()()()()()()()()()()()()()()()()()()()()()()()()
 
               SEWARD will generate:
                  Multipole Moment integrals up to order  2
                  Kinetic Energy integrals
                  Nuclear Attraction integrals (point charge)
                  One-Electron Hamiltonian integrals
                  Velocity integrals
                  Relativistic Douglas-Kroll-Hess integrals:
                    - Parametrization         : EXP
                    - DKH order of Hamiltonian: 2
                    - DKH order of Properties : 0
                         - multipole moment operators
                         - electric potential operators
                         - contact operators
                  Orbital angular momentum around ( 0.0000  0.0000  0.7559 )
                  Velocity quadrupole around ( 0.0000  0.0000  0.7559 )
                  Atomic mean-field integrals
                  Two-Electron Repulsion integrals
 
                   Integrals are discarded if absolute value <: 1.00E-14
                   Integral cutoff threshold is set to       <: 1.00E-16
 
            Nuclear Potential Energy             32.41210417 au
 
 
      Basis set specifications :
      Symmetry species         a  
      Basis functions           10
 
 
      Input file to MOLDEN was generated!
 
--- Stop Module: seward at Thu Apr 25 14:04:52 2024 /rc=_RC_ALL_IS_WELL_ ---
*** files: 0.80.GssOrb 0.80.guessorb.h5 0.80.guessorb.molden xmldump
    saved to directory /home/grierjones/DDCASPT2/delta_ML/NN/0.80

*** symbolic link created: INPORB -> 0.80.GssOrb
--- Start Module: scf at Thu Apr 25 14:04:52 2024 ---
 
()()()()()()()()()()()()()()()()()()()()()()()()()()()()()()()()()()()()()()()()()()()()()()()()()()

                                                &SCF

                                   only a single process is used
                       available to each process: 2.0 GB of memory, 1 thread?
                                            pid: 115613
()()()()()()()()()()()()()()()()()()()()()()()()()()()()()()()()()()()()()()()()()()()()()()()()()()
 
++    Input section:
      --------------
 
      Header of the integral files:
      
       Integrals generated by Gateway/Seward, Thu Apr 25 14:04:52 2024
 
 
      Cartesian coordinates in Angstrom:
      -----------------------------------------------------
      No.  Label        X            Y            Z        
      -----------------------------------------------------
       1   N1         0.00000000   0.00000000   0.00000000
       2   N2         0.00000000   0.00000000   0.80000000
      -----------------------------------------------------
      Nuclear repulsion energy =   32.41210417
--
 
++    Orbital specifications:
      -----------------------
 
      Symmetry species               1
                                     a
      Frozen orbitals                0
      Occupied orbitals alpha        7
      Occupied orbitals beta         7
      Secondary orbitals alpha       3
      Secondary orbitals beta        3
      Deleted orbitals               0
      Total number of orbitals      10
      Number of basis functions     10
--
 
      Molecular charge                           0.000
 
++    Optimization specifications:
      ----------------------------
 
      SCF Algorithm: Conventional USCF
      D(i)-D(i-1) density differences are used
      Number of density matrices in core                 5
      Maximum number of NDDO SCF iterations            400
      Maximum number of HF SCF iterations              400
      Threshold for SCF energy change             1.00E-09
      Threshold for density matrix                1.00E-04
      Threshold for Fock matrix                   1.50E-04
      Threshold for linear dependence             1.00E-09
      Threshold at which DIIS is turned on        1.50E-01
      Maximum depth in the DIIS procedure                5
      Maximum depth in the BFGS Hessian update          30
      Threshold at which QNR/C2DIIS is turned on  7.50E-02
      Threshold for Norm(delta) (QNR/C2DIIS)      1.00E-03
      All orbitals punched on: UHFORB
--
 
      Input vectors read from INPORB
      Orbital file label: *Guess orbitals
 
 
++ Convergence information
                               UHF SCF        iterations: Energy and convergence statistics
 
Iter     Tot. SCF        One-elec.       Two-elec.     Energy      Max Dij or  Max Fij      DNorm      TNorm      AccCon     Time
         Energy          Energy          Energy        Change      Delta Norm                                                in Sec.
   1  -108.030674842  -206.268712161    65.825933152   0.00E+00    1.13E-01*   1.65E-01*    5.34E+00   3.13E+01   None         0.
   2  -108.053845606  -206.371191486    65.905241712  -2.32E-02*   1.85E-02*   2.73E-02*    9.72E-01   3.13E+01   EDIIS        0.
   3  -108.054435869  -206.388739251    65.922199214  -5.90E-04*   1.01E-04*   5.39E-03*    1.74E-01   3.13E+01   c2DIIS       0.
   4  -108.054452373  -206.392240021    65.925683480  -1.65E-05*   1.14E-05    4.49E-05     1.39E-03   3.13E+01   QNRc2DIIS    0.
   5  -108.054452373  -206.392248236    65.925691695  -3.04E-10    1.94E-06    2.32E-06     7.23E-05   3.13E+01   QNRc2DIIS    0.
 
       Convergence after   5 Macro Iterations
--
 
 *****************************************************************************************************************************
 *                                                                                                                           *
 *                                             SCF/KS-DFT Program, Final results                                             *
 *                                                                                                                           *
 *                                                                                                                           *
 *                                                                                                                           *
 *                                                       Final Results                                                       *
 *                                                                                                                           *
 *****************************************************************************************************************************
 
::    Total SCF energy                               -108.0544523731
      One-electron energy                            -206.3922482357
      Two-electron energy                              65.9256916948
      Nuclear repulsion energy                         32.4121041678
      Kinetic energy (interpolated)                   110.5527337027
      Virial theorem                                    0.9774019036
      Total spin, S(S+1)                               -0.0000000000
      Total spin, S                                    -0.0000000000
      Max non-diagonal density matrix element           0.0000013395
      Max non-diagonal Fock matrix element              0.0000003574
 
 
      All orbitals with orbital energies smaller than  E(LUMO)+0.5 are printed
 
++    Molecular orbitals:
      -------------------
 
      Title: UHF orbitals (alpha)

      Molecular orbitals for symmetry species 1: a  
 
          Orbital            1         2         3         4         5         6         7         8         9    
          Energy          -16.0439  -16.0092   -1.8541   -0.9176   -0.9176   -0.7830   -0.7451    0.3405    0.3405
          Occ. No.          1.0000    1.0000    1.0000    1.0000    1.0000    1.0000    1.0000    0.0000    0.0000
 
        1 N1     1s         0.7048   -0.7112   -0.1128   -0.0000   -0.0000   -0.0183    0.0698    0.0000    0.0000
        2 N1     2s        -0.0046   -0.0078    0.3733   -0.0000    0.0000   -0.6571    0.4657    0.0000    0.0000
        3 N1     2px       -0.0000   -0.0000    0.0000   -0.2786    0.5039    0.0000    0.0000    0.3424   -0.9482
        4 N1     2py        0.0000    0.0000    0.0000    0.5039    0.2786   -0.0000   -0.0000   -0.9482   -0.3424
        5 N1     2pz        0.0067   -0.0084    0.3742   -0.0000   -0.0000    0.3501   -0.6517   -0.0000    0.0000
        6 N2     1s         0.7048    0.7112   -0.1128    0.0000    0.0000    0.0183    0.0698    0.0000   -0.0000
        7 N2     2s        -0.0046    0.0078    0.3733    0.0000   -0.0000    0.6571    0.4657    0.0000   -0.0000
        8 N2     2px       -0.0000   -0.0000    0.0000   -0.2786    0.5039    0.0000    0.0000   -0.3424    0.9482
        9 N2     2py       -0.0000   -0.0000    0.0000    0.5039    0.2786   -0.0000   -0.0000    0.9482    0.3424
       10 N2     2pz       -0.0067   -0.0084   -0.3742    0.0000   -0.0000    0.3501    0.6517    0.0000    0.0000
--
 
 
      Input file to MOLDEN was generated!
 
 
++    Static properties:
      ------------------
 
 
      LoProp Charges per center
 

                   N1       N2    
      Nuclear      7.0000   7.0000
      Electronic  -7.0000  -7.0000
 
      Total        0.0000  -0.0000
--
 
 
      All orbitals with orbital energies smaller than  E(LUMO)+0.5 are printed
 
++    Molecular orbitals:
      -------------------
 
      Title: UHF orbitals (beta)

      Molecular orbitals for symmetry species 1: a  
 
          Orbital            1         2         3         4         5         6         7         8         9    
          Energy          -16.0439  -16.0092   -1.8541   -0.9176   -0.9176   -0.7830   -0.7451    0.3405    0.3405
          Occ. No.          1.0000    1.0000    1.0000    1.0000    1.0000    1.0000    1.0000    0.0000    0.0000
 
        1 N1     1s         0.7048   -0.7112   -0.1128   -0.0000   -0.0000   -0.0183    0.0698    0.0000    0.0000
        2 N1     2s        -0.0046   -0.0078    0.3733   -0.0000    0.0000   -0.6571    0.4657    0.0000    0.0000
        3 N1     2px       -0.0000   -0.0000    0.0000   -0.2786    0.5039    0.0000    0.0000    0.3424   -0.9482
        4 N1     2py        0.0000    0.0000    0.0000    0.5039    0.2786   -0.0000   -0.0000   -0.9482   -0.3424
        5 N1     2pz        0.0067   -0.0084    0.3742   -0.0000   -0.0000    0.3501   -0.6517   -0.0000    0.0000
        6 N2     1s         0.7048    0.7112   -0.1128    0.0000    0.0000    0.0183    0.0698    0.0000   -0.0000
        7 N2     2s        -0.0046    0.0078    0.3733    0.0000   -0.0000    0.6571    0.4657    0.0000   -0.0000
        8 N2     2px       -0.0000   -0.0000    0.0000   -0.2786    0.5039    0.0000    0.0000   -0.3424    0.9482
        9 N2     2py       -0.0000   -0.0000    0.0000    0.5039    0.2786   -0.0000   -0.0000    0.9482    0.3424
       10 N2     2pz       -0.0067   -0.0084   -0.3742    0.0000   -0.0000    0.3501    0.6517    0.0000    0.0000
--
 
 
++    Molecular charges:
      ------------------
 
      Mulliken charges per centre and basis function type
      ---------------------------------------------------
 
                            N1                      N2    
                     alpha        beta       alpha        beta
      1s           1.0018      1.0018      1.0018      1.0018
      2s           0.7691      0.7691      0.7691      0.7691
      2px          0.5000      0.5000      0.5000      0.5000
      2pz          0.7291      0.7291      0.7291      0.7291
      2py          0.5000      0.5000      0.5000      0.5000
      Total        3.5000      3.5000      3.5000      3.5000
      Total              7.0000                  7.0000
 
      Charge            0.0000                 -0.0000
 
      Total electronic charge=   14.000000
 
      Total            charge=   -0.000000
--
 
 
      Input file to MOLDEN was generated!
 
 
++    Static properties:
      ------------------
 
 
      LoProp Charges per center
 

                   N1       N2    
      Nuclear      7.0000   7.0000
      Electronic  -7.0000  -7.0000
 
      Total        0.0000  -0.0000
--
 
 
++    Natural Bond Order analysis
      ---------------------------
      Based on LoProp computed density
      -------------------------------------------------------------------------------------
      Atom A       Atom B       Bond Order
        N1           N2             2.235
      -------------------------------------------------------------------------------------
      NBO located      4.469 electrons involved in    1 bonds.
      NBO located      1.013 non-bonded electrons on atom N1        
      The remaining    2.199 electrons are to be considered as diffuse
--
 
 
++    Molecular orbitals:
      -------------------
 
      Title: Natural orbitals

      Molecular orbitals for symmetry species 1: a  
 
          Orbital            1         2         3         4         5         6         7         8         9        10    
          Energy          -16.0439  -16.0086   -1.8541   -0.9176   -0.9176   -0.7695   -0.7451    0.3405    0.3405    2.1575
          Occ. No.          2.0000    2.0000    2.0000    2.0000    2.0000    2.0000    2.0000    0.0000    0.0000    0.0000
 
        1 N1     1s         0.7048   -0.7074   -0.1128   -0.0000    0.0000    0.0254    0.0698    0.0000    0.0000    0.6504
        2 N1     2s        -0.0046    0.0085    0.3733   -0.0000    0.0000   -0.4691    0.4657    0.0000    0.0000    2.7966
        3 N1     2px        0.0000   -0.0000    0.0000   -0.2786    0.5039   -0.0000   -0.0000    0.3424   -0.9482    0.0000
        4 N1     2py       -0.0000    0.0000   -0.0000    0.5039    0.2786    0.0000   -0.0000   -0.9482   -0.3424    0.0000
        5 N1     2pz        0.0067    0.0015    0.3742    0.0000   -0.0000    0.4660   -0.6517    0.0000    0.0000    1.6983
        6 N2     1s         0.7048    0.7074   -0.1128   -0.0000    0.0000   -0.0254    0.0698   -0.0000   -0.0000   -0.6504
        7 N2     2s        -0.0046   -0.0085    0.3733   -0.0000    0.0000    0.4691    0.4657   -0.0000   -0.0000   -2.7966
        8 N2     2px       -0.0000   -0.0000    0.0000   -0.2786    0.5039   -0.0000   -0.0000   -0.3424    0.9482   -0.0000
        9 N2     2py        0.0000    0.0000   -0.0000    0.5039    0.2786    0.0000   -0.0000    0.9482    0.3424   -0.0000
       10 N2     2pz       -0.0067    0.0015   -0.3742   -0.0000    0.0000    0.4660    0.6517    0.0000    0.0000    1.6983
--
 
 
++    Molecular properties:
      ---------------------
 
      Charge (e):
                      =   -0.0000
      Dipole Moment (Debye):
      Origin of the operator (Ang)=    0.0000    0.0000    0.0000
                   X= -1.1783E-14               Y=  1.6347E-14               Z=  9.4816E-14           Total=  9.6934E-14
      Quadrupole Moment (Debye*Ang):
      Origin of the operator (Ang)=    0.0000    0.0000    0.4000
                  XX= -1.0350E+01              XY=  7.0918E-17              XZ= -7.0919E-15              YY= -1.0350E+01
                  YZ=  4.3658E-14              ZZ= -1.3078E+01
      In traceless form (Debye*Ang)
                  XX=  1.3638E+00              XY=  1.0638E-16              XZ= -1.0638E-14              YY=  1.3638E+00
                  YZ=  6.5487E-14              ZZ= -2.7275E+00
--
 
 
      Input file to MOLDEN was generated!
 
 ###############################################################################
 ###############################################################################
 ###                                                                         ###
 ###                                                                         ###
 ###    WARNING: RunFile label nBas                                          ###
 ###    was used       87 times                                              ###
 ###                                                                         ###
 ###                                                                         ###
 ###############################################################################
 ###############################################################################
--- Stop Module: scf at Thu Apr 25 14:04:53 2024 /rc=_RC_ALL_IS_WELL_ ---
*** files: 0.80.LprOrb 0.80.LoProp.molden 0.80.scf.molden 0.80.scf.h5 0.80.UhfOrb 0.80.UnaOrb xmldump
    saved to directory /home/grierjones/DDCASPT2/delta_ML/NN/0.80

*** symbolic link created: INPORB -> 0.80.UnaOrb
--- Start Module: mbpt2 at Thu Apr 25 14:04:53 2024 ---
 
()()()()()()()()()()()()()()()()()()()()()()()()()()()()()()()()()()()()()()()()()()()()()()()()()()

                                               &MBPT2

                                   only a single process is used
                       available to each process: 2.0 GB of memory, 1 thread?
                                            pid: 115618
()()()()()()()()()()()()()()()()()()()()()()()()()()()()()()()()()()()()()()()()()()()()()()()()()()
 
 
 ###############################################################################
 ###############################################################################
 ###                                                                         ###
 ###                                                                         ###
 ###    WARNING: MP2 implementation intended for RHF references only         ###
 ###                                                                         ###
 ###                                                                         ###
 ###############################################################################
 ###############################################################################
MBPT2 WARNING: Reference function according to RunFile:UHF-SCF 
I'll assume you know what you're doing and continue
 
 
WARNING!
Default frozen orbitals as non valence orbitals is overwritten by user input.
Default values:   2
 
 
      Cartesian coordinates in Angstrom:
      -----------------------------------------------------
      No.  Label        X            Y            Z        
      -----------------------------------------------------
       1   N1         0.00000000   0.00000000   0.00000000
       2   N2         0.00000000   0.00000000   0.80000000
      -----------------------------------------------------
      Nuclear repulsion energy =   32.41210417
 
      Contents of RUNFILE file:
      -------------------------
 
      Symmetry species                           1
                                                 a
      Number of basis functions                 10
      Frozen occupied orbitals                   0
      Active occupied orbitals                   7
      Active external orbitals                   3
      Deleted external orbitals                  0
 
 
      Energies of the active occupied orbitals
 
      symmetry species 1                   -16.043867    -16.009210     -1.854107     -0.917553     -0.917553
                                            -0.783017     -0.745126
 
 
      Energies of the active external orbitals
 
      symmetry species 1                     0.340461      0.340461      2.171598
 
 
      ********************************************************************************************************
      *                                               Results                                                *
      ********************************************************************************************************
 
 Conventional algorithm used...

       SCF energy                           =     -108.0544523731 a.u.
       Second-order correlation energy      =       -0.0739106824 a.u.

       Total energy                         =     -108.1283630554 a.u.
       Reference weight ( Cref**2 )         =        0.97594
 
::    Total MBPT2 energy                             -108.1283630554
 
 
       Zeroth-order energy (E0)             =      -42.1287606783 a.u.
 
       Shanks-type energy S1(E)             =     -108.1284460113 a.u.
 
 


       Data processing and timing information:

       Section                                              time(sec)
                                                          CPU  Elapsed

      Input data processing                              0.02      0.04
      Transformation of integrals                        0.00      0.01
      MBPT2 calculations (BJAI)                          0.00      0.00
      Total MBPT2 calculations                           0.02      0.05
 
 
--- Stop Module: mbpt2 at Thu Apr 25 14:04:53 2024 /rc=_RC_ALL_IS_WELL_ ---
*** files: xmldump
    saved to directory /home/grierjones/DDCASPT2/delta_ML/NN/0.80

*** symbolic link created: INPORB -> 0.80.UnaOrb
--- Start Module: rasscf at Thu Apr 25 14:04:53 2024 ---
 
()()()()()()()()()()()()()()()()()()()()()()()()()()()()()()()()()()()()()()()()()()()()()()()()()()

                                              &RASSCF

                                   only a single process is used
                       available to each process: 2.0 GB of memory, 1 thread?
                                            pid: 115621
()()()()()()()()()()()()()()()()()()()()()()()()()()()()()()()()()()()()()()()()()()()()()()()()()()
 
 
      Header of the ONEINT file:
      --------------------------
      
      Integrals generated by Gateway/Seward, Thu Apr 25 14:04:52 2024
 
 
      OrdInt status: non-squared
 
 
      Cartesian coordinates in Angstrom:
      -----------------------------------------------------
      No.  Label        X            Y            Z        
      -----------------------------------------------------
       1   N1         0.00000000   0.00000000   0.00000000
       2   N2         0.00000000   0.00000000   0.80000000
      -----------------------------------------------------
      Nuclear repulsion energy =   32.41210417
 
++    Wave function specifications:
      -----------------------------
 
      Number of closed shell electrons          12
      Number of electrons in active shells       2
      Max number of holes in RAS1 space          0
      Max nr of electrons in RAS3 space          0
      Number of inactive orbitals                6
      Number of active orbitals                  2
      Number of secondary orbitals               2
      Spin quantum number                      0.0
      State symmetry                             1
--
 
++    Orbital specifications:
      -----------------------
 
      Symmetry species                           1
                                                 a
      Frozen orbitals                            0
      Inactive orbitals                          6
      Active orbitals                            2
      RAS1 orbitals                              0
      RAS2 orbitals                              2
      RAS3 orbitals                              0
      Secondary orbitals                         2
      Deleted orbitals                           0
      Number of basis functions                 10
--
 
++    CI expansion specifications:
      ----------------------------
 
      Number of CSFs                             3
      Number of determinants                     3
      Number of root(s) required                 1
      Root chosen for geometry opt.              1
      CI root used                               1
         
      highest root included in the CI            1
      max. size of the explicit Hamiltonian      3
--
 
++    Optimization specifications:
      ----------------------------
 
      RASSCF algorithm: Conventional
      Maximum number of macro iterations       200
      Maximum number of SX iterations          100
      Threshold for RASSCF energy            1.000E-08
      Threshold for max MO rotation          1.000E-01
      Threshold for max BLB element          1.000E-04
      Level shift parameter                  5.000E-01
      Make Quasi-Newton update
--
 
      The MO-coefficients are taken from the file:
      /home/grierjones/DDCASPT2/delta_ML/NN/0.70/0.70.RasOrb                                                                                                                                                                                                          
      Title: RASSCF average (pseudo-natural) orbitals                                      
 
      Total molecular charge    0.00
 
      ************************************************************************************************************************
      *                                                                                                                      *
      *                                            Wave function control section                                             *
      *                                                                                                                      *
      ************************************************************************************************************************
 
 
                                         RASSCF iterations: Energy and convergence statistics
                                         ----------------------------------------------------
 
      Iter CI   SX   CI       RASSCF       Energy    max ROT     max BLB   max BLB  Level Ln srch  Step   QN   Walltime
          iter iter root      energy       change     param      element    value   shift minimum  type update hh:mm:ss
 Nr of preliminary CI iterations:   1
        1   1    4    1  -108.05846512    0.00E+00  -8.31E-03    2  10 1 -7.89E-02*  0.00   0.00    SX    NO    0:00:00
        2   1    4    1  -108.05912153   -6.56E-04* -1.41E-03    7  10 1  8.19E-03*  0.00   0.00    SX    NO    0:00:00
        3   1    3    1  -108.05913581   -1.43E-05* -2.32E-04    7  10 1  1.36E-03*  0.00   0.00    SX    NO    0:00:00
        4   1    3    1  -108.05913618   -3.75E-07* -3.80E-05    7  10 1  2.22E-04*  0.00   0.00    SX    NO    0:00:00
        5   1    3    1  -108.05913619   -9.98E-09  -7.43E-06    7  10 1  3.64E-05   0.00   1.20    QN   YES    0:00:00
      Convergence after  5 iterations
        6   1    3    1  -108.05913619   -2.74E-10  -7.43E-06    2  10 1  3.88E-08   0.00   1.20    QN   YES    0:00:00
 
      ************************************************************************************************************************
                                                      Wave function printout:
                       occupation of active orbitals, and spin coupling of open shells (u,d: Spin up or down)
      ************************************************************************************************************************
 
      Note: transformation to natural orbitals
      has been made, which may change the order of the CSFs.
 
      printout of CI-coefficients larger than  0.05 for root  1
      energy=    -108.059136
      conf/sym  11     Coeff  Weight
             1  20   0.99830 0.99661
             3  02  -0.05821 0.00339
 
      Natural orbitals and occupation numbers for root  1
      sym 1:   1.993223   0.006777
 
      ************************************************************************************************************************
      *                                                                                                                      *
      *                                                    Final results                                                     *
      *                                                                                                                      *
      ************************************************************************************************************************
 
 
++    Wave function specifications:
      -----------------------------
 
      Number of closed shell electrons          12
      Number of electrons in active shells       2
      Max number of holes in RAS1 space          0
      Max nr of electrons in RAS3 space          0
      Number of inactive orbitals                6
      Number of active orbitals                  2
      Number of secondary orbitals               2
      Spin quantum number                      0.0
      State symmetry                             1
--
 
++    Orbital specifications:
      -----------------------
 
      Symmetry species                           1
                                                 a
      Frozen orbitals                            0
      Inactive orbitals                          6
      Active orbitals                            2
      RAS1 orbitals                              0
      RAS2 orbitals                              2
      RAS3 orbitals                              0
      Secondary orbitals                         2
      Deleted orbitals                           0
      Number of basis functions                 10
--
 
++    CI expansion specifications:
      ----------------------------
 
      Number of CSFs                             3
      Number of determinants                     3
      Number of root(s) required                 1
      CI root used                               1
      highest root included in the CI            1
      Root passed to geometry opt.               1
--
 
++    Final optimization conditions:
      ------------------------------
 
      Average CI energy                            -108.05913619
      RASSCF energy for state  1                   -108.05913619
      Super-CI energy                                -0.00000000
      RASSCF energy change                           -0.00000000
      Max change in MO coefficients               2.049E-05
      Max non-diagonal density matrix element    -7.428E-06
      Maximum BLB matrix element                  3.880E-08
      (orbital pair   2,  10 in symmetry   1)
      Norm of electronic gradient            3.812E-08
--
 
 
      Final state energy(ies):
      ------------------------
 
::    RASSCF root number  1 Total energy:   -108.05913619
 
++    Molecular orbitals:
      -------------------
 
      Pseudonatural active orbitals and approximate occupation numbers
 
 
 
 
      Molecular orbitals for symmetry species 1: a  
 
 
      Orbital                 1         2         3         4         5         6         7         8         9        10
      Energy           -16.0428  -16.0009   -1.8531   -0.9171   -0.9170   -0.7443   -0.7885   -0.0000    0.3410    2.1723
      Occ. No.           2.0000    2.0000    2.0000    2.0000    2.0000    2.0000    1.9932    0.0068    0.0000    0.0000
 
     1 N1     1s         0.7048   -0.7106    0.1128    0.0000    0.0000    0.0699   -0.0344   -0.0000    0.0000    0.6465
     2 N1     2s        -0.0046    0.0065   -0.3734   -0.0000    0.0000    0.4657   -0.6600   -0.0000    0.0000    2.7578
     3 N1     2px        0.0000   -0.0000   -0.0000    0.5746   -0.0375    0.0000   -0.0000   -1.0060    0.0656   -0.0000
     4 N1     2py        0.0000    0.0000    0.0000    0.0375    0.5746   -0.0000   -0.0000   -0.0656   -1.0060    0.0000
     5 N1     2pz        0.0067   -0.0160   -0.3741    0.0000   -0.0000   -0.6517    0.3481   -0.0000    0.0000    1.7262
     6 N2     1s         0.7048    0.7106    0.1128   -0.0000    0.0000    0.0699    0.0344    0.0000   -0.0000   -0.6465
     7 N2     2s        -0.0046   -0.0065   -0.3734   -0.0000    0.0000    0.4657    0.6600    0.0000   -0.0000   -2.7578
     8 N2     2px       -0.0000    0.0000   -0.0000    0.5746   -0.0375    0.0000    0.0000    1.0060   -0.0656    0.0000
     9 N2     2py       -0.0000   -0.0000   -0.0000    0.0375    0.5746   -0.0000    0.0000    0.0656    1.0060   -0.0000
    10 N2     2pz       -0.0067   -0.0160    0.3741   -0.0000    0.0000    0.6517    0.3481   -0.0000    0.0000    1.7262
--
 
      Von Neumann Entropy (Root   1) =  0.03268
 

      Mulliken population analysis for root number:  1
      -----------------------------------------------
 
 
++    Molecular charges:
      ------------------
 
      Mulliken charges per centre and basis function type
      ---------------------------------------------------
 
                N1      N2    
      1s       2.0036  2.0036
      2s       1.5388  1.5388
      2px      1.0034  1.0034
      2pz      1.4542  1.4542
      2py      1.0000  1.0000
      Total    7.0000  7.0000
 
      N-E     -0.0000  0.0000
 
      Total electronic charge=   14.000000
 
      Total            charge=   -0.000000
--
 
 

      Expectation values of various properties for root number:  1
      -----------------------------------------------------------
 
 
++    Molecular properties:
      ---------------------
 
      Charge (e):
                      =   -0.0000
      Dipole Moment (Debye):
      Origin of the operator (Ang)=    0.0000    0.0000    0.0000
                   X= -1.2500E-13               Y= -3.7202E-14               Z= -2.1221E-13           Total=  2.4908E-13
      Quadrupole Moment (Debye*Ang):
      Origin of the operator (Ang)=    0.0000    0.0000    0.4000
                  XX= -1.0354E+01              XY= -3.9571E-04              XZ=  2.8867E-14              YY= -1.0348E+01
                  YZ=  3.2678E-15              ZZ= -1.3059E+01
      In traceless form (Debye*Ang)
                  XX=  1.3498E+00              XY= -5.9357E-04              XZ=  4.3300E-14              YY=  1.3589E+00
                  YZ=  4.9018E-15              ZZ= -2.7087E+00
--
 

      LoProp population analysis for root number:  1
      -----------------------------------------------
 
 
++    LoProp analysis:
      ----------------
 
 
 
      Input file to MOLDEN was generated!
 
 
++    Static properties:
      ------------------
 
 
      LoProp Charges per center
 

                   N1       N2    
      Nuclear      7.0000   7.0000
      Electronic  -7.0000  -7.0000
 
      Total        0.0000  -0.0000
--
 
 
      Natural Bond Order analysis for root number:  1
 
++    Natural Bond Order analysis
      ---------------------------
      Based on LoProp computed density
      -------------------------------------------------------------------------------------
      Atom A       Atom B       Bond Order
        N1           N2             2.232
      -------------------------------------------------------------------------------------
      NBO located      4.465 electrons involved in    1 bonds.
      NBO located      1.012 non-bonded electrons on atom N1        
      The remaining    2.196 electrons are to be considered as diffuse
--
 
--
 
 
      Input file to MOLDEN was generated!
 
      Average orbitals are written to the RASORB file
      Natural orbitals for root   1 are written to the RASORB.1 file
      Spin density orbitals for root   1 are written to the SPDORB.1 file
 
--- Stop Module: rasscf at Thu Apr 25 14:04:54 2024 /rc=_RC_ALL_IS_WELL_ ---
*** files: 0.80.LprOrb 0.80.rasscf.molden 0.80.LoProp.molden 0.80.RasOrb.1 0.80.RasOrb 0.80.rasscf.h5 0.80.SpdOrb.1 xmldump
    saved to directory /home/grierjones/DDCASPT2/delta_ML/NN/0.80

*** symbolic link created: INPORB -> 0.80.RasOrb
--- Start Module: caspt2 at Thu Apr 25 14:04:54 2024 ---
 
()()()()()()()()()()()()()()()()()()()()()()()()()()()()()()()()()()()()()()()()()()()()()()()()()()

                                              &CASPT2

                                   only a single process is used
                       available to each process: 2.0 GB of memory, 1 thread?
                                            pid: 115624
()()()()()()()()()()()()()()()()()()()()()()()()()()()()()()()()()()()()()()()()()()()()()()()()()()
 
 ###############################################################################
 ###############################################################################
 ###                                                                         ###
 ###                                                                         ###
 ###    WARNING: User changed nr of frozen orbitals.                         ###
 ###                                                                         ###
 ###                                                                         ###
 ###############################################################################
 ###############################################################################
 
++    Wave function specifications:
      -----------------------------
 
      Number of closed shell electrons          12
      Number of electrons in active shells       2
      Max number of holes in RAS1 space          0
      Max number of electrons in RAS3 space      0
      Number of inactive orbitals                6
      Number of active orbitals                  2
      Number of secondary orbitals               2
      Spin quantum number                      0.0
      State symmetry                             1
      Number of CSFs                             3
      Number of CASSCF root(s) available         1
      CASPT2 state passed to geometry opt.       1
      A file JOBMIX will be created
      This is a CASSCF or RASSCF reference function
--
 
++    Orbital specifications:
      -----------------------
 
      Symmetry species                           1
                                                 a
      Frozen orbitals                            0
      Inactive orbitals                          6
      Active orbitals                            2
      Secondary orbitals                         2
      Deleted orbitals                           0
      Number of basis functions                 10
--
 
++    CASPT2 specifications:
      ----------------------
 
      Type of calculation                        SS-CASPT2
      Fock operator                              state-specific
      IPEA shift                                 0.25
      Real shift                                 0.00
      Imaginary shift                            0.00
      The input orbitals will be transformed to quasi-canonical
--
 
--------------------------------------------------------------------------------
 Estimated memory requirements:
  POLY3 :                   250070
  RHS:                      250428
  SIGMA :                   250384
  PRPCTL:                        0
 Available workspace:    230392690
 
++ CASPT2 computation for group   1
 
********************************************************************************
 Multi-State initialization phase begins for group   1
--------------------------------------------------------------------------------
********************************************************************************
 Compute H0 matrices for state    1
--------------------------------------------------------------------------------
--------------------------------------------------------------------------------
 H0 matrices have been computed.
 
********************************************************************************
  CASPT2 EQUATION SOLUTION
--------------------------------------------------------------------------------
 
  Total nr of CASPT2 parameters:
   Before reduction:         518
   After  reduction:         358
 
 Variance of |WF0>:       0.2549457133
 
 The contributions to the second order correlation energy in atomic units.
-----------------------------------------------------------------------------------------------------------------------------
  IT.      VJTU        VJTI        ATVX        AIVX        VJAI        BVAT        BJAT        BJAI        TOTAL       RNORM  
-----------------------------------------------------------------------------------------------------------------------------
   1     0.000000   -0.010008   -0.000000   -0.000000   -0.031745   -0.002736   -0.000038   -0.024950   -0.069478    0.000593
   2     0.000000   -0.010008   -0.000000   -0.000000   -0.031745   -0.002750   -0.000037   -0.024951   -0.069492    0.000012
-----------------------------------------------------------------------------------------------------------------------------
 
  FINAL CASPT2 RESULT:
 
      Reference energy:        -108.0591361901
      E2 (Non-variational):      -0.0694917153
      E2 (Variational):          -0.0694917144
      Total energy:            -108.1286279044
      Residual norm:              0.0000003265
      Reference weight:           0.97795
 
      Contributions to the CASPT2 correlation energy
      Active & Virtual Only:         -0.0027500321
      One Inactive Excited:          -0.0000373918
      Two Inactive Excited:          -0.0667042914
 
 
++ Denominators, etc.
--------------------------------------------------------------------------------------------------------------
 Report on small energy denominators, large coefficients, and large energy contributions.
CASE  SYMM ACTIVE-MIX  NON-ACTIVE INDICES          DENOMINATOR     RHS VALUE       COEFFICIENT     CONTRIBUTION
VJTIP    1  Mu1.0001  In1.004 In1.004               2.63003092      0.15397173     -0.05854426     -0.00901416
VJAIP    1  Mu1.0001  Se1.010 In1.004 In1.003       5.27495024     -0.13827468      0.02621346     -0.00362466
VJAIP    1  Mu1.0001  Se1.009 In1.005 In1.004       2.50751880     -0.13973241      0.05572537     -0.00778664
VJAIM    1  Mu1.0001  Se1.009 In1.005 In1.004       2.50751880     -0.18453851      0.07359407     -0.01358094
VJAIM    1  Mu1.0001  Se1.010 In1.006 In1.004       4.16613830     -0.11567342      0.02776514     -0.00321169
BVATP    1  Mu1.0001  Se1.009 Se1.009               2.37641169     -0.07877623      0.03299133     -0.00259893
BJAIP    1  Se1.009 In1.003 Se1.010 In1.005         5.28338504      0.13850955     -0.02621603     -0.00363117
BJAIP    1  Se1.009 In1.005 Se1.009 In1.005         2.51595360      0.15659248     -0.06223981     -0.00974629
BJAIM    1  Se1.009 In1.005 Se1.009 In1.006         4.17457310      0.11586991     -0.02775622     -0.00321611
--
 
   (Skipping property calculation,
    use PROP keyword to activate)
--
 
  Total CASPT2 energies:
::    CASPT2 Root  1     Total energy:   -108.12862790
 
  A NEW JOBIPH FILE NAMED 'JOBMIX' IS PREPARED.
********************************************************************************
--- Stop Module: caspt2 at Thu Apr 25 14:04:54 2024 /rc=_RC_ALL_IS_WELL_ ---
*** files: xmldump
    saved to directory /home/grierjones/DDCASPT2/delta_ML/NN/0.80

.##################.
.# Happy landing! #.
.##################.

    Timing: Wall=2.43 User=1.45 System=0.22
************************************
*** WorkDir at /tmp/0.80 removed ***
************************************
