[Molden Format]
[N_Atoms]
                     2
[Atoms] (AU)
N1          1      7           0.00000000      0.00000000      0.00000000
N2          2      7           0.00000000      0.00000000      1.51178090
[Charge] (Mulliken)
 -9.681144774731365E-014
  7.283063041541027E-014
[GTO] (AU)
   1
   s  14
  7.476171500E+04  1.182599996E-04
  1.112365400E+04  5.172899983E-04
  2.512685700E+03  2.266659992E-03
  7.037772900E+02  9.145289970E-03
  2.254787900E+02  3.239342989E-02
  7.961581000E+01  9.770792967E-02
  3.023728300E+01  2.317036792E-01
  1.226362200E+01  3.768898887E-01
  5.265086000E+00  3.177420689E-01
  2.333471000E+00  8.211308973E-02
  9.018560000E-01  3.312089989E-03
  3.583360000E-01  3.720819988E-03
  1.410930000E-01  3.165419989E-03
  4.938300000E-02  4.595799985E-04
   s  14
  7.476171500E+04 -2.707000010E-05
  1.112365400E+04 -1.183700004E-04
  2.512685700E+03 -5.203800020E-04
  7.037772900E+02 -2.102930008E-03
  2.254787900E+02 -7.568200028E-03
  7.961581000E+01 -2.346767009E-02
  3.023728300E+01 -6.042901023E-02
  1.226362200E+01 -1.170549104E-01
  5.265086000E+00 -1.555321506E-01
  2.333471000E+00 -2.468935009E-02
  9.018560000E-01  3.625054514E-01
  3.583360000E-01  5.550845021E-01
  1.410930000E-01  2.148376908E-01
  4.938300000E-02  8.983850034E-03
   p   9
  1.266665700E+02  1.233630000E-03
  2.983738900E+01  9.493409996E-03
  9.394038000E+00  4.293961998E-02
  3.405104000E+00  1.362925399E-01
  1.350000000E+00  2.921362499E-01
  5.576960000E-01  3.887887598E-01
  2.324490000E-01  2.946801399E-01
  9.426400000E-02  8.012875997E-02
  3.299200000E-02  5.405199998E-04
 
   2
   s  14
  7.476171500E+04  1.182599996E-04
  1.112365400E+04  5.172899983E-04
  2.512685700E+03  2.266659992E-03
  7.037772900E+02  9.145289970E-03
  2.254787900E+02  3.239342989E-02
  7.961581000E+01  9.770792967E-02
  3.023728300E+01  2.317036792E-01
  1.226362200E+01  3.768898887E-01
  5.265086000E+00  3.177420689E-01
  2.333471000E+00  8.211308973E-02
  9.018560000E-01  3.312089989E-03
  3.583360000E-01  3.720819988E-03
  1.410930000E-01  3.165419989E-03
  4.938300000E-02  4.595799985E-04
   s  14
  7.476171500E+04 -2.707000010E-05
  1.112365400E+04 -1.183700004E-04
  2.512685700E+03 -5.203800020E-04
  7.037772900E+02 -2.102930008E-03
  2.254787900E+02 -7.568200028E-03
  7.961581000E+01 -2.346767009E-02
  3.023728300E+01 -6.042901023E-02
  1.226362200E+01 -1.170549104E-01
  5.265086000E+00 -1.555321506E-01
  2.333471000E+00 -2.468935009E-02
  9.018560000E-01  3.625054514E-01
  3.583360000E-01  5.550845021E-01
  1.410930000E-01  2.148376908E-01
  4.938300000E-02  8.983850034E-03
   p   9
  1.266665700E+02  1.233630000E-03
  2.983738900E+01  9.493409996E-03
  9.394038000E+00  4.293961998E-02
  3.405104000E+00  1.362925399E-01
  1.350000000E+00  2.921362499E-01
  5.576960000E-01  3.887887598E-01
  2.324490000E-01  2.946801399E-01
  9.426400000E-02  8.012875997E-02
  3.299200000E-02  5.405199998E-04
 
[MO]
Sym=     1a  
Ene=   -16.0430
Spin= Alpha
Occup=    2.00000
   1         0.70479015
   2        -0.00459944
   3         0.00000000
   4         0.00000000
   5         0.00667721
   6         0.70479015
   7        -0.00459944
   8        -0.00000000
   9        -0.00000000
  10        -0.00667721
Sym=     2a  
Ene=   -16.0010
Spin= Alpha
Occup=    2.00000
   1        -0.71062910
   2         0.00648543
   3        -0.00000000
   4         0.00000000
   5        -0.01596150
   6         0.71062910
   7        -0.00648543
   8         0.00000000
   9        -0.00000000
  10        -0.01596150
Sym=     3a  
Ene=    -1.8531
Spin= Alpha
Occup=    2.00000
   1         0.11280090
   2        -0.37335300
   3        -0.00000000
   4         0.00000000
   5        -0.37411670
   6         0.11280090
   7        -0.37335300
   8        -0.00000000
   9        -0.00000000
  10         0.37411670
Sym=     4a  
Ene=    -0.9172
Spin= Alpha
Occup=    2.00000
   1         0.00000000
   2        -0.00000000
   3         0.57459073
   4         0.03746605
   5         0.00000000
   6        -0.00000000
   7        -0.00000000
   8         0.57459073
   9         0.03746605
  10        -0.00000000
Sym=     5a  
Ene=    -0.9170
Spin= Alpha
Occup=    2.00000
   1         0.00000000
   2         0.00000000
   3        -0.03746605
   4         0.57459073
   5        -0.00000000
   6         0.00000000
   7         0.00000000
   8        -0.03746605
   9         0.57459073
  10         0.00000000
Sym=     6a  
Ene=    -0.7443
Spin= Alpha
Occup=    2.00000
   1         0.06985894
   2         0.46568678
   3         0.00000000
   4        -0.00000000
   5        -0.65174365
   6         0.06985894
   7         0.46568678
   8         0.00000000
   9        -0.00000000
  10         0.65174365
Sym=     7a  
Ene=    -0.7885
Spin= Alpha
Occup=    1.99322
   1        -0.03444912
   2        -0.66000494
   3        -0.00000000
   4        -0.00000000
   5         0.34805918
   6         0.03444912
   7         0.66000494
   8         0.00000000
   9         0.00000000
  10         0.34805918
Sym=     8a  
Ene=    -0.0000
Spin= Alpha
Occup=    0.00678
   1        -0.00000000
   2        -0.00000000
   3        -1.00599258
   4        -0.06559550
   5        -0.00000000
   6         0.00000000
   7         0.00000000
   8         1.00599258
   9         0.06559550
  10        -0.00000000
Sym=     9a  
Ene=     0.3410
Spin= Alpha
Occup=    0.00000
   1         0.00000000
   2         0.00000000
   3         0.06559550
   4        -1.00599258
   5         0.00000000
   6        -0.00000000
   7        -0.00000000
   8        -0.06559550
   9         1.00599258
  10         0.00000000
Sym=    10a  
Ene=     2.1723
Spin= Alpha
Occup=    0.00000
   1         0.64649963
   2         2.75777407
   3        -0.00000000
   4         0.00000000
   5         1.72622713
   6        -0.64649963
   7        -2.75777407
   8         0.00000000
   9        -0.00000000
  10         1.72622713
