[Molden Format]
[N_Atoms]
                     2
[Atoms] (AU)
B1          1      5           0.00000000      0.00000000      0.00000000
C2          2      6           0.00000000      0.00000000      4.15739747
[Charge] (Mulliken)
  0.129134508613829     
 -0.129134508613843     
[GTO] (AU)
   1
   s  14
  3.336021700E+04  1.039699991E-04
  4.972095200E+03  5.254399956E-04
  1.125641700E+03  2.509059979E-03
  3.164913600E+02  1.031887991E-02
  1.020072600E+02  3.636632969E-02
  3.629587300E+01  1.064607991E-01
  1.397141000E+01  2.403999880E-01
  5.741156000E+00  3.748581168E-01
  2.494268000E+00  3.100066974E-01
  1.114202000E+00  7.922455933E-02
  4.215490000E-01 -4.947589958E-03
  1.696330000E-01 -7.737119935E-03
  6.853500000E-02 -1.501079987E-03
  2.398700000E-02 -1.333299989E-04
   s  14
  3.336021700E+04 -2.030000008E-05
  4.972095200E+03 -1.025700004E-04
  1.125641700E+03 -4.911300020E-04
  3.164913600E+02 -2.026570008E-03
  1.020072600E+02 -7.261010030E-03
  3.629587300E+01 -2.197722009E-02
  1.397141000E+01 -5.408428022E-02
  5.741156000E+00 -1.022402604E-01
  2.494268000E+00 -1.423595206E-01
  1.114202000E+00 -4.658690019E-02
  4.215490000E-01  3.799402916E-01
  1.696330000E-01  5.890463624E-01
  6.853500000E-02  1.749075107E-01
  2.398700000E-02 -1.142030005E-03
   p   9
  5.500000000E+01  1.229800005E-03
  1.336610100E+01  8.827380035E-03
  4.135394000E+00  3.843340015E-02
  1.481256000E+00  1.150031805E-01
  6.021360000E-01  2.733674011E-01
  2.556360000E-01  4.061972116E-01
  1.111510000E-01  3.014967912E-01
  4.764800000E-02  7.684809030E-02
  1.667700000E-02 -8.170000032E-06
 
   2
   s  14
  5.055750100E+04  1.128874000E-04
  7.524785600E+03  5.295373000E-04
  1.694327600E+03  2.450038300E-03
  4.728227900E+02  1.005398470E-02
  1.517107500E+02  3.545398060E-02
  5.391874600E+01  1.044071086E-01
  2.065931100E+01  2.412894918E-01
  8.383976000E+00  3.834225483E-01
  3.577015000E+00  3.078514393E-01
  1.547118000E+00  6.872442990E-02
  6.130130000E-01  2.224445000E-04
  2.460680000E-01  1.976748900E-03
  9.908700000E-02  2.057859400E-03
  3.468000000E-02  4.182020000E-04
   s  14
  5.055750100E+04 -2.507420000E-05
  7.524785600E+03 -1.175945000E-04
  1.694327600E+03 -5.456275000E-04
  4.728227900E+02 -2.245077100E-03
  1.517107500E+02 -8.043471800E-03
  5.391874600E+01 -2.442588710E-02
  2.065931100E+01 -6.136791180E-02
  8.383976000E+00 -1.177767835E-01
  3.577015000E+00 -1.550487783E-01
  1.547118000E+00 -1.933316860E-02
  6.130130000E-01  3.996930678E-01
  2.460680000E-01  5.589420949E-01
  9.908700000E-02  1.711195023E-01
  3.468000000E-02  7.456244600E-03
   p   9
  8.333315500E+01  1.344656000E-03
  1.955761100E+01  1.023555500E-02
  6.080365000E+00  4.520067100E-02
  2.179317000E+00  1.410756198E-01
  8.651500000E-01  3.047388085E-01
  3.619440000E-01  3.995281011E-01
  1.547400000E-01  2.719163432E-01
  6.542900000E-02  5.857669330E-02
  2.290000000E-02 -1.263813000E-04
 
[MO]
Sym=     1a  
Ene=   -11.1980
Spin= Alpha
Occup=    1.00000
   1        -0.00007760
   2        -0.00075041
   3         0.00000004
   4        -0.00000006
   5        -0.00063266
   6         1.00002671
   7        -0.00200194
   8         0.00000024
   9        -0.00000033
  10        -0.00095357
Sym=     1a  
Ene=   -11.1980
Spin= Beta
Occup=    1.00000
   1        -0.00007760
   2        -0.00075041
   3         0.00000004
   4        -0.00000006
   5        -0.00063266
   6         1.00002671
   7        -0.00200194
   8         0.00000024
   9        -0.00000033
  10        -0.00095357
Sym=     2a  
Ene=    -7.7047
Spin= Alpha
Occup=    1.00000
   1         0.99990416
   2         0.01394980
   3         0.00000031
   4        -0.00000046
   5         0.00059692
   6        -0.00006792
   7        -0.00020981
   8         0.00000003
   9        -0.00000005
  10        -0.00002094
Sym=     2a  
Ene=    -7.7047
Spin= Beta
Occup=    1.00000
   1         0.99990416
   2         0.01394980
   3         0.00000031
   4        -0.00000046
   5         0.00059692
   6        -0.00006792
   7        -0.00020981
   8         0.00000003
   9        -0.00000005
  10        -0.00002094
Sym=     3a  
Ene=    -0.6905
Spin= Alpha
Occup=    1.00000
   1        -0.01418886
   2         0.32472329
   3         0.00000742
   4        -0.00001729
   5         0.09515946
   6        -0.00510813
   7         0.85410197
   8         0.00001711
   9         0.00001431
  10        -0.03907537
Sym=     3a  
Ene=    -0.6905
Spin= Beta
Occup=    1.00000
   1        -0.01418886
   2         0.32472329
   3         0.00000742
   4        -0.00001729
   5         0.09515946
   6        -0.00510813
   7         0.85410197
   8         0.00001711
   9         0.00001431
  10        -0.03907537
Sym=     4a  
Ene=    -0.4857
Spin= Alpha
Occup=    1.00000
   1         0.01134396
   2        -0.91484652
   3         0.00000737
   4         0.00000080
   5         0.04622702
   6         0.01166649
   7         0.48053461
   8        -0.00005580
   9         0.00001118
  10         0.14224578
Sym=     4a  
Ene=    -0.4857
Spin= Beta
Occup=    1.00000
   1         0.01134396
   2        -0.91484652
   3         0.00000737
   4         0.00000080
   5         0.04622702
   6         0.01166649
   7         0.48053461
   8        -0.00005580
   9         0.00001118
  10         0.14224578
Sym=     5a  
Ene=    -0.2762
Spin= Alpha
Occup=    1.00000
   1         0.00000424
   2         0.00014855
   3        -0.24592020
   4        -0.08693465
   5        -0.00018504
   6         0.00000403
   7         0.00005221
   8        -0.87997875
   9        -0.31107938
  10         0.00027065
Sym=     5a  
Ene=    -0.2762
Spin= Beta
Occup=    1.00000
   1         0.00000424
   2         0.00014855
   3        -0.24592020
   4        -0.08693465
   5        -0.00018504
   6         0.00000403
   7         0.00005221
   8        -0.87997875
   9        -0.31107938
  10         0.00027065
Sym=     6a  
Ene=     0.2815
Spin= Alpha
Occup=    0.00000
   1        -0.02124149
   2        -0.38565240
   3         0.00751089
   4        -0.01971439
   5        -0.71113455
   6         0.02646889
   7         0.31947329
   8         0.01019511
   9        -0.02984346
  10        -0.96326645
Sym=     6a  
Ene=     0.2815
Spin= Beta
Occup=    0.00000
   1        -0.02124149
   2        -0.38565240
   3         0.00751089
   4        -0.01971439
   5        -0.71113455
   6         0.02646889
   7         0.31947329
   8         0.01019511
   9        -0.02984346
  10        -0.96326645
Sym=     7a  
Ene=    -0.0006
Spin= Alpha
Occup=    1.00000
   1         0.00646121
   2         0.14900973
   3         0.00001959
   4         0.00072824
   5        -0.81500941
   6         0.02346068
   7         0.28653761
   8         0.00019033
   9         0.00021406
  10         0.44605575
Sym=     7a  
Ene=    -0.0006
Spin= Beta
Occup=    0.00000
   1         0.00646121
   2         0.14900973
   3         0.00001959
   4         0.00072824
   5        -0.81500941
   6         0.02346068
   7         0.28653761
   8         0.00019033
   9         0.00021406
  10         0.44605575
Sym=     8a  
Ene=     0.0633
Spin= Alpha
Occup=    0.00000
   1         0.00074106
   2         0.01346438
   3         0.29527067
   4        -0.83567792
   5         0.02409322
   6        -0.00090164
   7        -0.01088570
   8         0.12142641
   9        -0.34331177
  10         0.03372406
Sym=     8a  
Ene=     0.0633
Spin= Beta
Occup=    0.00000
   1         0.00074106
   2         0.01346438
   3         0.29527067
   4        -0.83567792
   5         0.02409322
   6        -0.00090164
   7        -0.01088570
   8         0.12142641
   9        -0.34331177
  10         0.03372406
Sym=     9a  
Ene=     0.0917
Spin= Alpha
Occup=    0.00000
   1        -0.00001044
   2        -0.00021035
   3        -0.91793641
   4        -0.32436925
   5        -0.00054498
   6         0.00001932
   7         0.00023661
   8         0.35866589
   9         0.12681876
  10        -0.00046179
Sym=     9a  
Ene=     0.0917
Spin= Beta
Occup=    0.00000
   1        -0.00001044
   2        -0.00021035
   3        -0.91793641
   4        -0.32436925
   5        -0.00054498
   6         0.00001932
   7         0.00023661
   8         0.35866589
   9         0.12681876
  10        -0.00046179
Sym=    10a  
Ene=     0.1909
Spin= Alpha
Occup=    0.00000
   1        -0.00042697
   2        -0.00772393
   3         0.15978798
   4        -0.45203711
   5        -0.01441666
   6         0.00053573
   7         0.00644132
   8        -0.31305783
   9         0.88557910
  10        -0.01933547
Sym=    10a  
Ene=     0.1909
Spin= Beta
Occup=    0.00000
   1        -0.00042697
   2        -0.00772393
   3         0.15978798
   4        -0.45203711
   5        -0.01441666
   6         0.00053573
   7         0.00644132
   8        -0.31305783
   9         0.88557910
  10        -0.01933547
