[Molden Format]
[N_Atoms]
                     2
[Atoms] (AU)
B1          1      5           0.00000000      0.00000000      0.00000000
C2          2      6           0.00000000      0.00000000      4.15739747
[Charge] (Mulliken)
  5.665415921619932E-002
 -5.665415921625261E-002
[GTO] (AU)
   1
   s  14
  3.336021700E+04  1.039699991E-04
  4.972095200E+03  5.254399956E-04
  1.125641700E+03  2.509059979E-03
  3.164913600E+02  1.031887991E-02
  1.020072600E+02  3.636632969E-02
  3.629587300E+01  1.064607991E-01
  1.397141000E+01  2.403999880E-01
  5.741156000E+00  3.748581168E-01
  2.494268000E+00  3.100066974E-01
  1.114202000E+00  7.922455933E-02
  4.215490000E-01 -4.947589958E-03
  1.696330000E-01 -7.737119935E-03
  6.853500000E-02 -1.501079987E-03
  2.398700000E-02 -1.333299989E-04
   s  14
  3.336021700E+04 -2.030000008E-05
  4.972095200E+03 -1.025700004E-04
  1.125641700E+03 -4.911300020E-04
  3.164913600E+02 -2.026570008E-03
  1.020072600E+02 -7.261010030E-03
  3.629587300E+01 -2.197722009E-02
  1.397141000E+01 -5.408428022E-02
  5.741156000E+00 -1.022402604E-01
  2.494268000E+00 -1.423595206E-01
  1.114202000E+00 -4.658690019E-02
  4.215490000E-01  3.799402916E-01
  1.696330000E-01  5.890463624E-01
  6.853500000E-02  1.749075107E-01
  2.398700000E-02 -1.142030005E-03
   p   9
  5.500000000E+01  1.229800005E-03
  1.336610100E+01  8.827380035E-03
  4.135394000E+00  3.843340015E-02
  1.481256000E+00  1.150031805E-01
  6.021360000E-01  2.733674011E-01
  2.556360000E-01  4.061972116E-01
  1.111510000E-01  3.014967912E-01
  4.764800000E-02  7.684809030E-02
  1.667700000E-02 -8.170000032E-06
 
   2
   s  14
  5.055750100E+04  1.128874000E-04
  7.524785600E+03  5.295373000E-04
  1.694327600E+03  2.450038300E-03
  4.728227900E+02  1.005398470E-02
  1.517107500E+02  3.545398060E-02
  5.391874600E+01  1.044071086E-01
  2.065931100E+01  2.412894918E-01
  8.383976000E+00  3.834225483E-01
  3.577015000E+00  3.078514393E-01
  1.547118000E+00  6.872442990E-02
  6.130130000E-01  2.224445000E-04
  2.460680000E-01  1.976748900E-03
  9.908700000E-02  2.057859400E-03
  3.468000000E-02  4.182020000E-04
   s  14
  5.055750100E+04 -2.507420000E-05
  7.524785600E+03 -1.175945000E-04
  1.694327600E+03 -5.456275000E-04
  4.728227900E+02 -2.245077100E-03
  1.517107500E+02 -8.043471800E-03
  5.391874600E+01 -2.442588710E-02
  2.065931100E+01 -6.136791180E-02
  8.383976000E+00 -1.177767835E-01
  3.577015000E+00 -1.550487783E-01
  1.547118000E+00 -1.933316860E-02
  6.130130000E-01  3.996930678E-01
  2.460680000E-01  5.589420949E-01
  9.908700000E-02  1.711195023E-01
  3.468000000E-02  7.456244600E-03
   p   9
  8.333315500E+01  1.344656000E-03
  1.955761100E+01  1.023555500E-02
  6.080365000E+00  4.520067100E-02
  2.179317000E+00  1.410756198E-01
  8.651500000E-01  3.047388085E-01
  3.619440000E-01  3.995281011E-01
  1.547400000E-01  2.719163432E-01
  6.542900000E-02  5.857669330E-02
  2.290000000E-02 -1.263813000E-04
 
[MO]
Sym=     1a  
Ene=   -11.2600
Spin= Alpha
Occup=    1.00000
   1        -0.00009706
   2        -0.00089277
   3         0.00000000
   4        -0.00000000
   5        -0.00089659
   6         1.00003944
   7         0.00069795
   8        -0.00000000
   9        -0.00000000
  10        -0.00032572
Sym=     1a  
Ene=   -11.2060
Spin= Beta
Occup=    1.00000
   1        -0.00005797
   2        -0.00040605
   3         0.00000000
   4        -0.00000000
   5        -0.00023551
   6         1.00000143
   7        -0.00462571
   8        -0.00000000
   9        -0.00000000
  10        -0.00039577
Sym=     2a  
Ene=    -7.6627
Spin= Alpha
Occup=    1.00000
   1         0.99991454
   2         0.01315221
   3        -0.00000000
   4         0.00000000
   5         0.00039711
   6        -0.00004168
   7        -0.00011881
   8         0.00000000
   9         0.00000000
  10        -0.00000373
Sym=     2a  
Ene=    -7.6856
Spin= Beta
Occup=    1.00000
   1         0.99988474
   2         0.01573747
   3        -0.00000000
   4         0.00000000
   5        -0.00022890
   6        -0.00005054
   7        -0.00022873
   8        -0.00000000
   9         0.00000000
  10         0.00025247
Sym=     3a  
Ene=    -0.8224
Spin= Alpha
Occup=    1.00000
   1         0.00971826
   2        -0.12505527
   3         0.00000000
   4        -0.00000000
   5        -0.06326687
   6         0.00384160
   7        -0.95131074
   8         0.00000000
   9        -0.00000000
  10        -0.06070454
Sym=     3a  
Ene=    -0.6184
Spin= Beta
Occup=    1.00000
   1         0.01965547
   2        -0.68802467
   3         0.00000000
   4        -0.00000000
   5         0.02695661
   6         0.00519764
   7        -0.58080634
   8        -0.00000000
   9         0.00000000
  10         0.12022665
Sym=     4a  
Ene=    -0.4400
Spin= Alpha
Occup=    1.00000
   1        -0.01585939
   2         0.85661100
   3         0.00000000
   4        -0.00000000
   5         0.21895766
   6        -0.01779388
   7        -0.31010127
   8         0.00000000
   9        -0.00000000
  10        -0.31305970
Sym=     4a  
Ene=    -0.4890
Spin= Beta
Occup=    1.00000
   1        -0.00183011
   2         0.69144503
   3         0.00000000
   4        -0.00000000
   5        -0.28354109
   6        -0.00381073
   7        -0.71855780
   8        -0.00000000
   9         0.00000000
  10         0.07104431
Sym=     5a  
Ene=    -0.4088
Spin= Alpha
Occup=    1.00000
   1         0.00000000
   2        -0.00000000
   3         0.07809610
   4        -0.00150464
   5        -0.00000000
   6         0.00000000
   7         0.00000000
   8         0.98705020
   9        -0.01901698
  10         0.00000000
Sym=     5a  
Ene=    -0.3209
Spin= Beta
Occup=    1.00000
   1        -0.00000000
   2         0.00000000
   3         0.01905593
   4         0.98907192
   5         0.00000000
   6        -0.00000000
   7        -0.00000000
   8         0.00130688
   9         0.06783188
  10        -0.00000000
Sym=     6a  
Ene=    -0.4065
Spin= Alpha
Occup=    1.00000
   1        -0.00000000
   2         0.00000000
   3         0.00119165
   4         0.06185074
   5         0.00000000
   6        -0.00000000
   7        -0.00000000
   8         0.01907770
   9         0.99020183
  10        -0.00000000
Sym=     6a  
Ene=     0.0650
Spin= Beta
Occup=    0.00000
   1         0.00833145
   2        -0.08581987
   3         0.00000000
   4         0.00000000
   5        -0.73854946
   6         0.02524181
   7         0.46795557
   8         0.00000000
   9        -0.00000000
  10         0.48914020
Sym=     7a  
Ene=     0.0414
Spin= Alpha
Occup=    0.00000
   1         0.00863746
   2         0.54480131
   3         0.00000000
   4        -0.00000000
   5        -0.53577795
   6         0.00901851
   7         0.00372843
   8        -0.00000000
   9        -0.00000000
  10         0.64062320
Sym=     7a  
Ene=     0.0749
Spin= Beta
Occup=    0.00000
   1        -0.00000000
   2         0.00000000
   3         0.94969963
   4        -0.01829736
   5         0.00000000
   6        -0.00000000
   7        -0.00000000
   8         0.21567811
   9        -0.00415536
  10        -0.00000000
Sym=     8a  
Ene=     0.1306
Spin= Alpha
Occup=    0.00000
   1        -0.00000000
   2        -0.00000000
   3         1.00467977
   4        -0.01935663
   5         0.00000000
   6        -0.00000000
   7         0.00000000
   8        -0.20300823
   9         0.00391125
  10        -0.00000000
Sym=     8a  
Ene=     0.2495
Spin= Beta
Occup=    0.00000
   1        -0.00000000
   2        -0.00000000
   3        -0.00371684
   4        -0.19291753
   5        -0.00000000
   6         0.00000000
   7         0.00000000
   8         0.01937099
   9         1.00542492
  10        -0.00000000
Sym=     9a  
Ene=     0.1797
Spin= Alpha
Occup=    0.00000
   1        -0.00000000
   2         0.00000000
   3         0.01937842
   4         1.00581058
   5        -0.00000000
   6         0.00000000
   7         0.00000000
   8        -0.00360344
   9        -0.18703144
  10        -0.00000000
Sym=     9a  
Ene=     0.2598
Spin= Beta
Occup=    0.00000
   1        -0.00000000
   2        -0.00000000
   3        -0.33697337
   4         0.00649229
   5        -0.00000000
   6         0.00000000
   7        -0.00000000
   8         0.98435938
   9        -0.01896513
  10        -0.00000000
Sym=    10a  
Ene=     0.2927
Spin= Alpha
Occup=    0.00000
   1         0.01955393
   2         0.25952602
   3         0.00000000
   4         0.00000000
   5         0.91811232
   6        -0.03124329
   7        -0.37890030
   8        -0.00000000
   9        -0.00000000
  10         0.79876873
Sym=    10a  
Ene=     0.3343
Spin= Beta
Occup=    0.00000
   1        -0.02008530
   2        -0.39328127
   3         0.00000000
   4         0.00000000
   5        -0.74522262
   6         0.02803909
   7         0.26845778
   8        -0.00000000
   9        -0.00000000
  10        -0.94411917
