[Molden Format]
[N_Atoms]
                     2
[Atoms] (AU)
LI1         1      3           0.00000000      0.00000000      0.00000000
LI2         2      3           0.00000000      0.00000000      5.29123315
[Charge] (Mulliken)
  4.494182803682634E-013
 -4.627409566637652E-013
[GTO] (AU)
   1
   s  14
  9.497934400E+03  9.668999974E-05
  1.416811200E+03  6.087099984E-04
  3.214599400E+02  3.101519992E-03
  9.112416300E+01  1.266904997E-02
  2.999989100E+01  4.248012989E-02
  1.101763100E+01  1.150183297E-01
  4.372801000E+00  2.398650094E-01
  1.831256000E+00  3.584300090E-01
  8.022610000E-01  3.048527792E-01
  3.626480000E-01  8.824261976E-02
  1.139950000E-01 -8.445899977E-04
  5.123700000E-02 -7.943959979E-03
  2.246800000E-02 -3.764419990E-03
  7.860000000E-03 -8.868999976E-05
   s  14
  9.497934400E+03 -1.244999993E-05
  1.416811200E+03 -7.838999954E-05
  3.214599400E+02 -4.007099976E-04
  9.112416300E+01 -1.645249990E-03
  2.999989100E+01 -5.634599967E-03
  1.101763100E+01 -1.590780991E-02
  4.372801000E+00 -3.612581979E-02
  1.831256000E+00 -6.459927962E-02
  8.022610000E-01 -1.008321794E-01
  3.626480000E-01 -9.757613942E-02
  1.139950000E-01  2.301215886E-01
  5.123700000E-02  6.102389764E-01
  2.246800000E-02  2.849406083E-01
  7.860000000E-03  4.026899976E-03
   p   9
  1.311950400E+01  1.524940000E-03
  3.077424200E+00  8.314830000E-03
  1.098800500E+00  1.933203000E-02
  4.357784000E-01  4.934293000E-02
  1.802432000E-01  1.623554000E-01
  7.613330000E-02  3.847505400E-01
  3.254650000E-02  4.336100400E-01
  1.401820000E-02  1.287005900E-01
  4.906400000E-03 -1.018520000E-03
 
   2
   s  14
  9.497934400E+03  9.668999974E-05
  1.416811200E+03  6.087099984E-04
  3.214599400E+02  3.101519992E-03
  9.112416300E+01  1.266904997E-02
  2.999989100E+01  4.248012989E-02
  1.101763100E+01  1.150183297E-01
  4.372801000E+00  2.398650094E-01
  1.831256000E+00  3.584300090E-01
  8.022610000E-01  3.048527792E-01
  3.626480000E-01  8.824261976E-02
  1.139950000E-01 -8.445899977E-04
  5.123700000E-02 -7.943959979E-03
  2.246800000E-02 -3.764419990E-03
  7.860000000E-03 -8.868999976E-05
   s  14
  9.497934400E+03 -1.244999993E-05
  1.416811200E+03 -7.838999954E-05
  3.214599400E+02 -4.007099976E-04
  9.112416300E+01 -1.645249990E-03
  2.999989100E+01 -5.634599967E-03
  1.101763100E+01 -1.590780991E-02
  4.372801000E+00 -3.612581979E-02
  1.831256000E+00 -6.459927962E-02
  8.022610000E-01 -1.008321794E-01
  3.626480000E-01 -9.757613942E-02
  1.139950000E-01  2.301215886E-01
  5.123700000E-02  6.102389764E-01
  2.246800000E-02  2.849406083E-01
  7.860000000E-03  4.026899976E-03
   p   9
  1.311950400E+01  1.524940000E-03
  3.077424200E+00  8.314830000E-03
  1.098800500E+00  1.933203000E-02
  4.357784000E-01  4.934293000E-02
  1.802432000E-01  1.623554000E-01
  7.613330000E-02  3.847505400E-01
  3.254650000E-02  4.336100400E-01
  1.401820000E-02  1.287005900E-01
  4.906400000E-03 -1.018520000E-03
 
[MO]
Sym=     1a  
Ene=    -2.4577
Spin= Alpha
Occup=    2.00000
   1         0.70733768
   2         0.00674457
   3        -0.00000000
   4         0.00000000
   5        -0.00145129
   6         0.70733768
   7         0.00674457
   8         0.00000000
   9        -0.00000000
  10         0.00145129
Sym=     2a  
Ene=    -2.4576
Spin= Alpha
Occup=    2.00000
   1        -0.70659406
   2        -0.00564028
   3        -0.00000000
   4         0.00000000
   5         0.00273856
   6         0.70659405
   7         0.00564028
   8         0.00000000
   9        -0.00000000
  10         0.00273856
Sym=     3a  
Ene=    -0.1728
Spin= Alpha
Occup=    1.91026
   1        -0.05241256
   2         0.51718812
   3        -0.00000000
   4        -0.00000000
   5         0.12694698
   6        -0.05241256
   7         0.51718812
   8         0.00000000
   9        -0.00000000
  10        -0.12694698
Sym=     4a  
Ene=    -0.0000
Spin= Alpha
Occup=    0.08974
   1        -0.00000000
   2        -0.00000000
   3         0.53470101
   4        -0.22205585
   5        -0.00000000
   6         0.00000000
   7         0.00000000
   8         0.53470101
   9        -0.22205585
  10         0.00000000
Sym=     5a  
Ene=     0.0191
Spin= Alpha
Occup=    0.00000
   1         0.02647560
   2        -0.48569394
   3        -0.00000000
   4        -0.00000000
   5         0.42928469
   6        -0.02647560
   7         0.48569394
   8        -0.00000000
   9        -0.00000000
  10         0.42928469
Sym=     6a  
Ene=     0.0455
Spin= Alpha
Occup=    0.00000
   1         0.00000000
   2        -0.00000000
   3         0.22205585
   4         0.53470101
   5        -0.00000000
   6         0.00000000
   7         0.00000000
   8         0.22205585
   9         0.53470101
  10         0.00000000
Sym=     7a  
Ene=     0.0743
Spin= Alpha
Occup=    0.00000
   1         0.05964258
   2         0.35543141
   3         0.00000000
   4        -0.00000000
   5        -0.72927570
   6         0.05964258
   7         0.35543141
   8        -0.00000000
   9        -0.00000000
  10         0.72927570
Sym=     8a  
Ene=     0.1247
Spin= Alpha
Occup=    0.00000
   1         0.00000000
   2         0.00000000
   3        -0.91585265
   4         0.38034422
   5        -0.00000000
   6        -0.00000000
   7        -0.00000000
   8         0.91585265
   9        -0.38034422
  10         0.00000000
Sym=     9a  
Ene=     0.1252
Spin= Alpha
Occup=    0.00000
   1         0.00000000
   2        -0.00000000
   3        -0.38034422
   4        -0.91585265
   5        -0.00000000
   6         0.00000000
   7        -0.00000000
   8         0.38034422
   9         0.91585265
  10        -0.00000000
Sym=    10a  
Ene=     0.2773
Spin= Alpha
Occup=    0.00000
   1        -0.30382895
   2        -2.16706931
   3        -0.00000000
   4         0.00000000
   5        -1.55125928
   6         0.30382895
   7         2.16706931
   8         0.00000000
   9        -0.00000000
  10        -1.55125928
