[Molden Format]
[N_Atoms]
                     2
[Atoms] (AU)
LI1         1      3           0.00000000      0.00000000      0.00000000
LI2         2      3           0.00000000      0.00000000      5.29123315
[Charge] (Mulliken)
  0.999950007438325     
   1.00004999256166     
[GTO] (AU)
   1
   s  14
  9.497934400E+03  9.668999974E-05
  1.416811200E+03  6.087099984E-04
  3.214599400E+02  3.101519992E-03
  9.112416300E+01  1.266904997E-02
  2.999989100E+01  4.248012989E-02
  1.101763100E+01  1.150183297E-01
  4.372801000E+00  2.398650094E-01
  1.831256000E+00  3.584300090E-01
  8.022610000E-01  3.048527792E-01
  3.626480000E-01  8.824261976E-02
  1.139950000E-01 -8.445899977E-04
  5.123700000E-02 -7.943959979E-03
  2.246800000E-02 -3.764419990E-03
  7.860000000E-03 -8.868999976E-05
   s  14
  9.497934400E+03 -1.244999993E-05
  1.416811200E+03 -7.838999954E-05
  3.214599400E+02 -4.007099976E-04
  9.112416300E+01 -1.645249990E-03
  2.999989100E+01 -5.634599967E-03
  1.101763100E+01 -1.590780991E-02
  4.372801000E+00 -3.612581979E-02
  1.831256000E+00 -6.459927962E-02
  8.022610000E-01 -1.008321794E-01
  3.626480000E-01 -9.757613942E-02
  1.139950000E-01  2.301215886E-01
  5.123700000E-02  6.102389764E-01
  2.246800000E-02  2.849406083E-01
  7.860000000E-03  4.026899976E-03
   p   9
  1.311950400E+01  1.524940000E-03
  3.077424200E+00  8.314830000E-03
  1.098800500E+00  1.933203000E-02
  4.357784000E-01  4.934293000E-02
  1.802432000E-01  1.623554000E-01
  7.613330000E-02  3.847505400E-01
  3.254650000E-02  4.336100400E-01
  1.401820000E-02  1.287005900E-01
  4.906400000E-03 -1.018520000E-03
 
   2
   s  14
  9.497934400E+03  9.668999974E-05
  1.416811200E+03  6.087099984E-04
  3.214599400E+02  3.101519992E-03
  9.112416300E+01  1.266904997E-02
  2.999989100E+01  4.248012989E-02
  1.101763100E+01  1.150183297E-01
  4.372801000E+00  2.398650094E-01
  1.831256000E+00  3.584300090E-01
  8.022610000E-01  3.048527792E-01
  3.626480000E-01  8.824261976E-02
  1.139950000E-01 -8.445899977E-04
  5.123700000E-02 -7.943959979E-03
  2.246800000E-02 -3.764419990E-03
  7.860000000E-03 -8.868999976E-05
   s  14
  9.497934400E+03 -1.244999993E-05
  1.416811200E+03 -7.838999954E-05
  3.214599400E+02 -4.007099976E-04
  9.112416300E+01 -1.645249990E-03
  2.999989100E+01 -5.634599967E-03
  1.101763100E+01 -1.590780991E-02
  4.372801000E+00 -3.612581979E-02
  1.831256000E+00 -6.459927962E-02
  8.022610000E-01 -1.008321794E-01
  3.626480000E-01 -9.757613942E-02
  1.139950000E-01  2.301215886E-01
  5.123700000E-02  6.102389764E-01
  2.246800000E-02  2.849406083E-01
  7.860000000E-03  4.026899976E-03
   p   9
  1.311950400E+01  1.524940000E-03
  3.077424200E+00  8.314830000E-03
  1.098800500E+00  1.933203000E-02
  4.357784000E-01  4.934293000E-02
  1.802432000E-01  1.623554000E-01
  7.613330000E-02  3.847505400E-01
  3.254650000E-02  4.336100400E-01
  1.401820000E-02  1.287005900E-01
  4.906400000E-03 -1.018520000E-03
 
[MO]
Sym=     1a  
Ene=    -2.9824
Spin= Alpha
Occup=    2.00000
   1        -0.00055290
   2        -0.00160980
   3        -0.00000000
   4         0.00000000
   5        -0.00065432
   6         1.00009625
   7         0.01316718
   8         0.00000000
   9         0.00000000
  10        -0.00262988
Sym=     2a  
Ene=    -2.9825
Spin= Alpha
Occup=    1.99998
   1        -1.00011225
   2        -0.01343414
   3        -0.00000000
   4        -0.00000000
   5        -0.00275877
   6         0.00028791
   7         0.00176778
   8        -0.00000000
   9         0.00000000
  10        -0.00072694
Sym=     3a  
Ene=    -0.0007
Spin= Alpha
Occup=    0.00002
   1         0.11344320
   2         1.75478995
   3        -0.00000000
   4         0.00000000
   5         0.83566705
   6        -0.20273195
   7        -1.09770809
   8        -0.00000000
   9        -0.00000000
  10         0.52633684
Sym=     4a  
Ene=    -0.3500
Spin= Alpha
Occup=    0.00000
   1        -0.11390664
   2        -0.68379416
   3         0.00000000
   4        -0.00000000
   5         0.10803637
   6         0.01722707
   7         1.18224146
   8         0.00000000
   9        -0.00000000
  10        -0.36344643
Sym=     5a  
Ene=    -0.3031
Spin= Alpha
Occup=    0.00000
   1        -0.00000000
   2        -0.00000000
   3         0.14087988
   4         0.56161501
   5        -0.00000000
   6         0.00000000
   7         0.00000000
   8         0.14086114
   9         0.56154031
  10         0.00000000
Sym=     6a  
Ene=    -0.3031
Spin= Alpha
Occup=    0.00000
   1         0.00000000
   2        -0.00000000
   3        -0.56161501
   4         0.14087988
   5         0.00000000
   6        -0.00000000
   7         0.00000000
   8        -0.56154031
   9         0.14086114
  10         0.00000000
Sym=     7a  
Ene=    -0.2689
Spin= Alpha
Occup=    0.00000
   1        -0.05131295
   2        -0.38935817
   3         0.00000000
   4         0.00000000
   5         0.63628208
   6        -0.04647462
   7        -0.50989954
   8         0.00000000
   9         0.00000000
  10        -0.73134029
Sym=     8a  
Ene=    -0.2359
Spin= Alpha
Occup=    0.00000
   1         0.00000000
   2         0.00000000
   3        -0.88103322
   4         0.45517434
   5         0.00000000
   6        -0.00000000
   7        -0.00000000
   8         0.88107317
   9        -0.45519498
  10         0.00000000
Sym=     9a  
Ene=    -0.2359
Spin= Alpha
Occup=    0.00000
   1        -0.00000000
   2         0.00000000
   3        -0.45517434
   4        -0.88103322
   5        -0.00000000
   6         0.00000000
   7         0.00000000
   8         0.45519498
   9         0.88107317
  10        -0.00000000
Sym=    10a  
Ene=    -0.1695
Spin= Alpha
Occup=    0.00000
   1        -0.26498517
   2        -1.27567051
   3        -0.00000000
   4         0.00000000
   5        -1.42259786
   6         0.23488201
   7         1.56944205
   8        -0.00000000
   9        -0.00000000
  10        -1.48144154
