[Molden Format]
[N_Atoms]
                     2
[Atoms] (AU)
BE1         1      4           0.00000000      0.00000000      0.00000000
C2          2      6           0.00000000      0.00000000      4.15739747
[Charge] (Mulliken)
  7.068286528352363E-002
 -7.068286528357337E-002
[GTO] (AU)
   1
   s  14
  2.262859900E+04  8.443999941E-05
  3.372318100E+03  4.601499968E-04
  7.603504000E+02  2.285389984E-03
  2.117404800E+02  9.648129932E-03
  6.722346800E+01  3.494469975E-02
  2.337217700E+01  1.061099893E-01
  8.721373000E+00  2.458240383E-01
  3.468091000E+00  3.862428773E-01
  1.452144000E+00  3.105526078E-01
  6.086150000E-01  6.415933955E-02
  2.576860000E-01 -2.265049984E-03
  1.041760000E-01 -5.217499963E-04
  4.242700000E-02 -8.757499938E-04
  1.484900000E-02  1.242199991E-04
   s  14
  2.262859900E+04 -1.586999994E-05
  3.372318100E+03 -8.656999968E-05
  7.603504000E+02 -4.302199984E-04
  2.117404800E+02 -1.825079993E-03
  6.722346800E+01 -6.682749976E-03
  2.337217700E+01 -2.095119992E-02
  8.721373000E+00 -5.200308981E-02
  3.468091000E+00 -9.849176964E-02
  1.452144000E+00 -1.355800695E-01
  6.086150000E-01 -6.429875976E-02
  2.576860000E-01  3.125414989E-01
  1.041760000E-01  6.270468577E-01
  4.242700000E-02  2.110231492E-01
  1.484900000E-02 -4.104669985E-03
   p   9
  3.371018400E+01  1.069960000E-03
  8.057649500E+00  6.828550001E-03
  2.836471400E+00  2.119065000E-02
  1.099965700E+00  5.843696001E-02
  4.433964000E-01  2.020920800E-01
  1.822264000E-01  4.582953101E-01
  7.572410000E-02  3.691239601E-01
  3.168540000E-02  6.611471001E-02
  1.108990000E-02  1.405160000E-03
 
   2
   s  14
  5.055750100E+04  1.128874000E-04
  7.524785600E+03  5.295373000E-04
  1.694327600E+03  2.450038300E-03
  4.728227900E+02  1.005398470E-02
  1.517107500E+02  3.545398060E-02
  5.391874600E+01  1.044071086E-01
  2.065931100E+01  2.412894918E-01
  8.383976000E+00  3.834225483E-01
  3.577015000E+00  3.078514393E-01
  1.547118000E+00  6.872442990E-02
  6.130130000E-01  2.224445000E-04
  2.460680000E-01  1.976748900E-03
  9.908700000E-02  2.057859400E-03
  3.468000000E-02  4.182020000E-04
   s  14
  5.055750100E+04 -2.507420000E-05
  7.524785600E+03 -1.175945000E-04
  1.694327600E+03 -5.456275000E-04
  4.728227900E+02 -2.245077100E-03
  1.517107500E+02 -8.043471800E-03
  5.391874600E+01 -2.442588710E-02
  2.065931100E+01 -6.136791180E-02
  8.383976000E+00 -1.177767835E-01
  3.577015000E+00 -1.550487783E-01
  1.547118000E+00 -1.933316860E-02
  6.130130000E-01  3.996930678E-01
  2.460680000E-01  5.589420949E-01
  9.908700000E-02  1.711195023E-01
  3.468000000E-02  7.456244600E-03
   p   9
  8.333315500E+01  1.344656000E-03
  1.955761100E+01  1.023555500E-02
  6.080365000E+00  4.520067100E-02
  2.179317000E+00  1.410756198E-01
  8.651500000E-01  3.047388085E-01
  3.619440000E-01  3.995281011E-01
  1.547400000E-01  2.719163432E-01
  6.542900000E-02  5.857669330E-02
  2.290000000E-02 -1.263813000E-04
 
[MO]
Sym=     1a  
Ene=   -11.2370
Spin= Alpha
Occup=    1.00000
   1        -0.00015029
   2        -0.00098148
   3        -0.00000000
   4        -0.00000000
   5        -0.00094659
   6         1.00006493
   7        -0.00180322
   8         0.00000000
   9        -0.00000000
  10        -0.00096287
Sym=     1a  
Ene=   -11.2370
Spin= Beta
Occup=    1.00000
   1        -0.00015029
   2        -0.00098148
   3        -0.00000000
   4        -0.00000000
   5        -0.00094659
   6         1.00006493
   7        -0.00180322
   8         0.00000000
   9        -0.00000000
  10        -0.00096287
Sym=     2a  
Ene=    -4.7353
Spin= Alpha
Occup=    1.00000
   1         0.99998706
   2         0.00216531
   3         0.00000000
   4        -0.00000000
   5        -0.00002883
   6        -0.00000846
   7         0.00032691
   8         0.00000000
   9        -0.00000000
  10        -0.00015589
Sym=     2a  
Ene=    -4.7353
Spin= Beta
Occup=    1.00000
   1         0.99998706
   2         0.00216531
   3         0.00000000
   4        -0.00000000
   5        -0.00002883
   6        -0.00000846
   7         0.00032691
   8         0.00000000
   9        -0.00000000
  10        -0.00015589
Sym=     3a  
Ene=    -0.6939
Spin= Alpha
Occup=    1.00000
   1        -0.01572916
   2         0.13185002
   3        -0.00000000
   4        -0.00000000
   5         0.07131854
   6        -0.00413737
   7         0.92777816
   8         0.00000000
   9        -0.00000000
  10        -0.03050054
Sym=     3a  
Ene=    -0.6939
Spin= Beta
Occup=    1.00000
   1        -0.01572916
   2         0.13185002
   3        -0.00000000
   4        -0.00000000
   5         0.07131854
   6        -0.00413737
   7         0.92777816
   8         0.00000000
   9        -0.00000000
  10        -0.03050054
Sym=     4a  
Ene=    -0.3062
Spin= Alpha
Occup=    1.00000
   1         0.00579390
   2        -0.92105101
   3        -0.00000000
   4         0.00000000
   5         0.01189254
   6         0.02248212
   7         0.36997227
   8        -0.00000000
   9         0.00000000
  10         0.26111431
Sym=     4a  
Ene=    -0.3062
Spin= Beta
Occup=    1.00000
   1         0.00579390
   2        -0.92105101
   3        -0.00000000
   4         0.00000000
   5         0.01189254
   6         0.02248212
   7         0.36997227
   8        -0.00000000
   9         0.00000000
  10         0.26111431
Sym=     5a  
Ene=    -0.3052
Spin= Alpha
Occup=    1.00000
   1        -0.00000000
   2         0.00000000
   3        -0.00131891
   4         0.18313148
   5        -0.00000000
   6        -0.00000000
   7        -0.00000000
   8        -0.00686254
   9         0.95287145
  10        -0.00000000
Sym=     5a  
Ene=    -0.3052
Spin= Beta
Occup=    1.00000
   1        -0.00000000
   2         0.00000000
   3        -0.00131891
   4         0.18313148
   5        -0.00000000
   6        -0.00000000
   7        -0.00000000
   8        -0.00686254
   9         0.95287145
  10        -0.00000000
Sym=     6a  
Ene=     0.0339
Spin= Alpha
Occup=    0.00000
   1         0.01702978
   2         0.29506409
   3         0.00000000
   4        -0.00000000
   5        -0.68939841
   6         0.02484488
   7         0.23321178
   8         0.00000000
   9        -0.00000000
  10         0.58928937
Sym=     6a  
Ene=     0.0339
Spin= Beta
Occup=    0.00000
   1         0.01702978
   2         0.29506409
   3         0.00000000
   4        -0.00000000
   5        -0.68939841
   6         0.02484488
   7         0.23321178
   8         0.00000000
   9        -0.00000000
  10         0.58928937
Sym=     7a  
Ene=     0.0595
Spin= Alpha
Occup=    0.00000
   1        -0.00000000
   2         0.00000000
   3         0.80802954
   4         0.00581940
   5         0.00000000
   6        -0.00000000
   7        -0.00000000
   8         0.46912012
   9         0.00337858
  10        -0.00000000
Sym=     7a  
Ene=     0.0595
Spin= Beta
Occup=    0.00000
   1        -0.00000000
   2         0.00000000
   3         0.80802954
   4         0.00581940
   5         0.00000000
   6        -0.00000000
   7        -0.00000000
   8         0.46912012
   9         0.00337858
  10        -0.00000000
Sym=     8a  
Ene=     0.1104
Spin= Alpha
Occup=    0.00000
   1         0.00000000
   2        -0.00000000
   3        -0.00718489
   4         0.99762954
   5        -0.00000000
   6         0.00000000
   7         0.00000000
   8         0.00250353
   9        -0.34761739
  10         0.00000000
Sym=     8a  
Ene=     0.1104
Spin= Beta
Occup=    0.00000
   1         0.00000000
   2        -0.00000000
   3        -0.00718489
   4         0.99762954
   5        -0.00000000
   6         0.00000000
   7         0.00000000
   8         0.00250353
   9        -0.34761739
  10         0.00000000
Sym=     9a  
Ene=     0.1832
Spin= Alpha
Occup=    0.00000
   1        -0.00000000
   2        -0.00000000
   3        -0.61309877
   4        -0.00441551
   5        -0.00000000
   6         0.00000000
   7         0.00000000
   8         0.89929314
   9         0.00647667
  10        -0.00000000
Sym=     9a  
Ene=     0.1832
Spin= Beta
Occup=    0.00000
   1        -0.00000000
   2        -0.00000000
   3        -0.61309877
   4        -0.00441551
   5        -0.00000000
   6         0.00000000
   7         0.00000000
   8         0.89929314
   9         0.00647667
  10        -0.00000000
Sym=    10a  
Ene=     0.3260
Spin= Alpha
Occup=    0.00000
   1         0.03849959
   2         0.49546063
   3        -0.00000000
   4         0.00000000
   5         0.91449253
   6        -0.05385504
   7        -0.51198385
   8         0.00000000
   9        -0.00000000
  10         0.88452111
Sym=    10a  
Ene=     0.3260
Spin= Beta
Occup=    0.00000
   1         0.03849959
   2         0.49546063
   3        -0.00000000
   4         0.00000000
   5         0.91449253
   6        -0.05385504
   7        -0.51198385
   8         0.00000000
   9        -0.00000000
  10         0.88452111
