[Molden Format]
[N_Atoms]
                     2
[Atoms] (AU)
B1          1      5           0.00000000      0.00000000      0.00000000
BE2         2      4           0.00000000      0.00000000      4.15739747
[Charge] (Mulliken)
 -0.108330983021464     
  0.108330983021452     
[GTO] (AU)
   1
   s  14
  3.336021700E+04  1.039699991E-04
  4.972095200E+03  5.254399956E-04
  1.125641700E+03  2.509059979E-03
  3.164913600E+02  1.031887991E-02
  1.020072600E+02  3.636632969E-02
  3.629587300E+01  1.064607991E-01
  1.397141000E+01  2.403999880E-01
  5.741156000E+00  3.748581168E-01
  2.494268000E+00  3.100066974E-01
  1.114202000E+00  7.922455933E-02
  4.215490000E-01 -4.947589958E-03
  1.696330000E-01 -7.737119935E-03
  6.853500000E-02 -1.501079987E-03
  2.398700000E-02 -1.333299989E-04
   s  14
  3.336021700E+04 -2.030000008E-05
  4.972095200E+03 -1.025700004E-04
  1.125641700E+03 -4.911300020E-04
  3.164913600E+02 -2.026570008E-03
  1.020072600E+02 -7.261010030E-03
  3.629587300E+01 -2.197722009E-02
  1.397141000E+01 -5.408428022E-02
  5.741156000E+00 -1.022402604E-01
  2.494268000E+00 -1.423595206E-01
  1.114202000E+00 -4.658690019E-02
  4.215490000E-01  3.799402916E-01
  1.696330000E-01  5.890463624E-01
  6.853500000E-02  1.749075107E-01
  2.398700000E-02 -1.142030005E-03
   p   9
  5.500000000E+01  1.229800005E-03
  1.336610100E+01  8.827380035E-03
  4.135394000E+00  3.843340015E-02
  1.481256000E+00  1.150031805E-01
  6.021360000E-01  2.733674011E-01
  2.556360000E-01  4.061972116E-01
  1.111510000E-01  3.014967912E-01
  4.764800000E-02  7.684809030E-02
  1.667700000E-02 -8.170000032E-06
 
   2
   s  14
  2.262859900E+04  8.443999941E-05
  3.372318100E+03  4.601499968E-04
  7.603504000E+02  2.285389984E-03
  2.117404800E+02  9.648129932E-03
  6.722346800E+01  3.494469975E-02
  2.337217700E+01  1.061099893E-01
  8.721373000E+00  2.458240383E-01
  3.468091000E+00  3.862428773E-01
  1.452144000E+00  3.105526078E-01
  6.086150000E-01  6.415933955E-02
  2.576860000E-01 -2.265049984E-03
  1.041760000E-01 -5.217499963E-04
  4.242700000E-02 -8.757499938E-04
  1.484900000E-02  1.242199991E-04
   s  14
  2.262859900E+04 -1.586999994E-05
  3.372318100E+03 -8.656999968E-05
  7.603504000E+02 -4.302199984E-04
  2.117404800E+02 -1.825079993E-03
  6.722346800E+01 -6.682749976E-03
  2.337217700E+01 -2.095119992E-02
  8.721373000E+00 -5.200308981E-02
  3.468091000E+00 -9.849176964E-02
  1.452144000E+00 -1.355800695E-01
  6.086150000E-01 -6.429875976E-02
  2.576860000E-01  3.125414989E-01
  1.041760000E-01  6.270468577E-01
  4.242700000E-02  2.110231492E-01
  1.484900000E-02 -4.104669985E-03
   p   9
  3.371018400E+01  1.069960000E-03
  8.057649500E+00  6.828550001E-03
  2.836471400E+00  2.119065000E-02
  1.099965700E+00  5.843696001E-02
  4.433964000E-01  2.020920800E-01
  1.822264000E-01  4.582953101E-01
  7.572410000E-02  3.691239601E-01
  3.168540000E-02  6.611471001E-02
  1.108990000E-02  1.405160000E-03
 
[MO]
Sym=     1a  
Ene=    -7.6290
Spin= Alpha
Occup=    2.00000
   1         0.99990483
   2         0.01493344
   3        -0.00000000
   4        -0.00000000
   5        -0.00052566
   6        -0.00002326
   7        -0.00016887
   8         0.00000000
   9         0.00000000
  10         0.00018340
Sym=     2a  
Ene=    -4.7960
Spin= Alpha
Occup=    2.00000
   1        -0.00002975
   2         0.00070342
   3        -0.00000000
   4        -0.00000000
   5         0.00038869
   6         0.99995096
   7         0.00379274
   8         0.00000000
   9         0.00000000
  10         0.00127531
Sym=     3a  
Ene=    -0.4815
Spin= Alpha
Occup=    2.00000
   1        -0.02894544
   2         0.80879428
   3         0.00000000
   4        -0.00000000
   5         0.06505134
   6        -0.02617467
   7         0.26097716
   8         0.00000000
   9         0.00000000
  10        -0.14375627
Sym=     4a  
Ene=    -0.0575
Spin= Alpha
Occup=    1.00000
   1         0.00000000
   2         0.00000000
   3         0.81678075
   4        -0.42639994
   5        -0.00000000
   6         0.00000000
   7        -0.00000000
   8         0.20321946
   9        -0.10609061
  10         0.00000000
Sym=     5a  
Ene=     0.0000
Spin= Alpha
Occup=    2.00000
   1        -0.00000000
   2        -0.00000000
   3         0.22356795
   4         0.42825053
   5         0.00000000
   6        -0.00000000
   7         0.00000000
   8         0.35640859
   9         0.68271040
  10        -0.00000000
Sym=     6a  
Ene=    -0.0533
Spin= Alpha
Occup=    0.00000
   1        -0.00627085
   2        -0.40666669
   3         0.00000000
   4        -0.00000000
   5         0.23336047
   6        -0.00670871
   7         0.86562510
   8         0.00000000
   9        -0.00000000
  10         0.25482528
Sym=     7a  
Ene=     0.0702
Spin= Alpha
Occup=    0.00000
   1         0.02948323
   2         0.39654428
   3        -0.00000000
   4         0.00000000
   5        -0.61149867
   6         0.02404545
   7         0.15800249
   8        -0.00000000
   9         0.00000000
  10         0.67863845
Sym=     8a  
Ene=     0.1356
Spin= Alpha
Occup=    0.00000
   1         0.00000000
   2         0.00000000
   3        -0.40482089
   4         0.21133652
   5        -0.00000000
   6         0.00000000
   7         0.00000000
   8         0.88865775
   9        -0.46392329
  10         0.00000000
Sym=     9a  
Ene=     0.1434
Spin= Alpha
Occup=    0.00000
   1        -0.00000000
   2        -0.00000000
   3        -0.42011594
   4        -0.80474358
   5         0.00000000
   6        -0.00000000
   7         0.00000000
   8         0.31536162
   9         0.60408381
  10        -0.00000000
Sym=    10a  
Ene=     0.3839
Spin= Alpha
Occup=    0.00000
   1        -0.07379850
   2        -0.76820233
   3        -0.00000000
   4        -0.00000000
   5        -0.98700831
   6         0.07567331
   7         0.77459245
   8        -0.00000000
   9        -0.00000000
  10        -0.99270358
