   This run of MOLCAS is using the pymolcas driver

                             OPE
                             OPE          NMOL  CASOP  ENMOLC A   SO
                 OPE        NMOLC        AS  OP EN  MO LC     AS  OP
                OPENM       OL CA        SO  PE NM  OL CA     SOP EN
                OP EN      MO   LC       AS  OP ENMOL  CASO   PENMOL
                OP  EN     MO   LC       AS  OP EN     MO     LC ASO
               OP   E  NMOL  C  AS       OP  EN MO     LC     AS  OP
               OP  E   NMO   LC AS        OPEN  MO     LCASOP EN   M
               O  PEN   MO  LCA  SO
            OPE   NMO   L   CAS    OP
        OPENMOL  CASOP     ENMOL   CASOPE
     OPENMOLCA   SOPENMOLCASOPEN   MOLCASOPE
    OPENMOLCAS   OP           EN   MOL    CAS
    OPENMOLCAS       OP  ENM        O     LCA
    OPENMOLCAS    OPEN  MOLCASO     P  E  NMO
    OPENMOLCAS     OP               E  N  MOL
    OPENMOLCA   SO           PENM   O  L  CAS    OPEN    MO    LCAS
    OPENMOLCA   SOP           ENM   O  L  CAS   OP  EN  MOLC  AS   O
    OPENMOLCA   SOPE           NM      O  LCA   S      OP  EN MO
    OPENMOLC                AS         O  PEN   M      OL  CA  SOPE
    OPENMO        LCASOPE  NMOL        C  ASO   P      ENMOLC     AS
    OPE     NMO      LCA  SO     P     E   NM   OL  CA SO  PE N   MO
          OPENMOLCA            SOPE   NMO        LCAS  O    P  ENMO
     OPENMOLCASOPENMOLCASOPENMOLCASOPENMOLCA
        OPENMOLCASOPENMOLCASOPENMOLCASOPE
            OPENMOLCASOPENMOLCASOPENM
               OPENMOLCASOPENMOLCA        version: 24.02
                   OPENMOLCASO
                       OPE                tag: 126-g611b04c8f

 OpenMolcas is free software; you can redistribute it and/or modify it
 under the terms of the GNU Lesser General Public License version 2.1.
 OpenMolcas is distributed in the hope that it will be useful, but it
 is provided "as is" and without any express or implied warranties.
 For more details see the full text of the license in the file
 LICENSE or in <http://www.gnu.org/licenses/>.

                 Copyright (C) The OpenMolcas Authors
           For the author list and the recommended citation,
                   consult the file CONTRIBUTORS.md

           *************************************************
           * pymolcas version py2.28                       *
           *   build c4a6d18ded8cb6cad61d2372a9abd97c      *
           *   (after the EMIL interpreter by V. Veryazov) *
           *************************************************

configuration info
------------------
Host name: debian (Linux)
C Compiler ID: GNU
C flags: -std=gnu99
Fortran Compiler ID: Intel
Fortran flags: -fpp -i8 -heap-arrays
Definitions: _MOLCAS_;_I8_;_LINUX_
Parallel: OFF (GA=OFF)


   ------------------------------------------------------------------
  |
  |              Project: 2.20
  |       Submitted from: /home/grierjones/DDCASPT2/delta_ML/BBe/2.20
  |         Scratch area: /tmp/2.20
  |      Save outputs to: /home/grierjones/DDCASPT2/delta_ML/BBe/2.20
  |               Molcas: /usr/local
  |
  | Scratch area is empty
  |
  |       MOLCAS_DRIVER = /usr/local/pymolcas
  | MOLCAS_KEEP_WORKDIR = NO
  |  MOLCAS_NEW_WORKDIR = YES
  |       MOLCAS_NPROCS = 1
  |       MOLCAS_SOURCE = /usr/local
  |    MOLCAS_STRUCTURE = 0
  |
   ------------------------------------------------------------------

++ ---------   Input file   ---------

&GATEWAY
coord=2.20.xyz
Basis = ANO-RCC-MB
Group = nosymm
End of Input

&SEWARD
End of Input

&SCF
UHF

&MBPT2
Frozen
0

&RASSCF
Title= RASSCF
FileOrb
/home/grierjones/DDCASPT2/delta_ML/BBe/2.10/2.10.RasOrb

NACTEL
1 0 0
Inactive
4
RAS2
2
Symmetry
1
Spin
2
orblisting
all
ITERation
200 100
CIMX
200
SDAV
500

&CASPT2
Imaginary Shift
0.0
Frozen
0

-- ----------------------------------

--- Start Module: gateway at Thu Apr 25 13:32:30 2024 ---
 
()()()()()()()()()()()()()()()()()()()()()()()()()()()()()()()()()()()()()()()()()()()()()()()()()()

                                              &GATEWAY

                                   only a single process is used
                       available to each process: 2.0 GB of memory, 1 thread?
                                             pid: 93801
()()()()()()()()()()()()()()()()()()()()()()()()()()()()()()()()()()()()()()()()()()()()()()()()()()
 
 
++    Symmetry information:
      ---------------------
 
                    Character Table for C1 
 
                             E  
                    a        1  x, y, xy, Rz, z, xz, Ry, yz, Rx, I
--
 
 
++    Basis set information:
      ----------------------
 
 
      Basis set label: B.ANO-RCC...2S1P.
 
      Electronic valence basis set:
      ------------------
      Associated Effective Charge   5.000000 au
      Associated Actual Charge      5.000000 au
      Nuclear Model: Point charge
 
      Shell  nPrim  nBasis  Cartesian Spherical Contaminant
         s      14       2        X                  
         p       9       1        X                  
 
 
      Basis set label: BE.ANO-RCC...2S1P.
 
      Electronic valence basis set:
      ------------------
      Associated Effective Charge   4.000000 au
      Associated Actual Charge      4.000000 au
      Nuclear Model: Point charge
 
      Shell  nPrim  nBasis  Cartesian Spherical Contaminant
         s      14       2        X                  
         p       9       1        X                  
--
 
 
++    Molecular structure info:
      -------------------------
 
                    ************************************************ 
                    **** Cartesian Coordinates / Bohr, Angstrom **** 
                    ************************************************ 
 
     Center  Label                x              y              z                     x              y              z
        1      B1               0.000000       0.000000       0.000000              0.000000       0.000000       0.000000
        2      BE2              0.000000       0.000000       4.157397              0.000000       0.000000       2.200000
--
 
 
            Nuclear Potential Energy              4.81070192 au
 
--- Stop Module: gateway at Thu Apr 25 13:32:30 2024 /rc=_RC_ALL_IS_WELL_ ---
*** files: xmldump
    saved to directory /home/grierjones/DDCASPT2/delta_ML/BBe/2.20

--- Start Module: seward at Thu Apr 25 13:32:30 2024 ---
 
()()()()()()()()()()()()()()()()()()()()()()()()()()()()()()()()()()()()()()()()()()()()()()()()()()

                                              &SEWARD

                                   only a single process is used
                       available to each process: 2.0 GB of memory, 1 thread?
                                             pid: 93804
()()()()()()()()()()()()()()()()()()()()()()()()()()()()()()()()()()()()()()()()()()()()()()()()()()
 
               SEWARD will generate:
                  Multipole Moment integrals up to order  2
                  Kinetic Energy integrals
                  Nuclear Attraction integrals (point charge)
                  One-Electron Hamiltonian integrals
                  Velocity integrals
                  Relativistic Douglas-Kroll-Hess integrals:
                    - Parametrization         : EXP
                    - DKH order of Hamiltonian: 2
                    - DKH order of Properties : 0
                         - multipole moment operators
                         - electric potential operators
                         - contact operators
                  Orbital angular momentum around ( 0.0000  0.0000  1.8714 )
                  Velocity quadrupole around ( 0.0000  0.0000  1.8714 )
                  Atomic mean-field integrals
                  Two-Electron Repulsion integrals
 
                   Integrals are discarded if absolute value <: 1.00E-14
                   Integral cutoff threshold is set to       <: 1.00E-16
 
            Nuclear Potential Energy              4.81070192 au
 
 
      Basis set specifications :
      Symmetry species         a  
      Basis functions           10
 
 
      Input file to MOLDEN was generated!
 
--- Stop Module: seward at Thu Apr 25 13:32:30 2024 /rc=_RC_ALL_IS_WELL_ ---
*** files: 2.20.GssOrb 2.20.guessorb.h5 2.20.guessorb.molden xmldump
    saved to directory /home/grierjones/DDCASPT2/delta_ML/BBe/2.20

*** symbolic link created: INPORB -> 2.20.GssOrb
--- Start Module: scf at Thu Apr 25 13:32:30 2024 ---
 
()()()()()()()()()()()()()()()()()()()()()()()()()()()()()()()()()()()()()()()()()()()()()()()()()()

                                                &SCF

                                   only a single process is used
                       available to each process: 2.0 GB of memory, 1 thread?
                                             pid: 93807
()()()()()()()()()()()()()()()()()()()()()()()()()()()()()()()()()()()()()()()()()()()()()()()()()()
 
++    Input section:
      --------------
 
      Header of the integral files:
      
       Integrals generated by Gateway/Seward, Thu Apr 25 13:32:30 2024
 
 
      Cartesian coordinates in Angstrom:
      -----------------------------------------------------
      No.  Label        X            Y            Z        
      -----------------------------------------------------
       1   B1         0.00000000   0.00000000   0.00000000
       2   BE2        0.00000000   0.00000000   2.20000000
      -----------------------------------------------------
      Nuclear repulsion energy =    4.81070192
--
 
++    Orbital specifications:
      -----------------------
 
      Symmetry species               1
                                     a
      Frozen orbitals                0
      Occupied orbitals alpha        5
      Occupied orbitals beta         4
      Secondary orbitals alpha       5
      Secondary orbitals beta        6
      Deleted orbitals               0
      Total number of orbitals      10
      Number of basis functions     10
--
 
      Molecular charge                           0.000
 
++    Optimization specifications:
      ----------------------------
 
      SCF Algorithm: Conventional USCF
      D(i)-D(i-1) density differences are used
      Number of density matrices in core                 5
      Maximum number of NDDO SCF iterations            400
      Maximum number of HF SCF iterations              400
      Threshold for SCF energy change             1.00E-09
      Threshold for density matrix                1.00E-04
      Threshold for Fock matrix                   1.50E-04
      Threshold for linear dependence             1.00E-09
      Threshold at which DIIS is turned on        1.50E-01
      Maximum depth in the DIIS procedure                5
      Maximum depth in the BFGS Hessian update          30
      Threshold at which QNR/C2DIIS is turned on  7.50E-02
      Threshold for Norm(delta) (QNR/C2DIIS)      1.00E-03
      All orbitals punched on: UHFORB
--
 
      Input vectors read from INPORB
      Orbital file label: *Guess orbitals
 
 
++ Convergence information
                               UHF SCF        iterations: Energy and convergence statistics
 
Iter     Tot. SCF        One-elec.       Two-elec.     Energy      Max Dij or  Max Fij      DNorm      TNorm      AccCon     Time
         Energy          Energy          Energy        Change      Delta Norm                                                in Sec.
   1   -38.851022929   -61.788700862    18.126976016   0.00E+00    9.59E-01*   1.67E-01*    4.31E+00   1.16E+01   None         0.
   2   -38.962598132   -60.538125472    16.764825422  -1.12E-01*   3.81E-01*   1.20E-01*    2.86E+00   1.11E+01   EDIIS        0.
   3   -39.073329790   -61.359450934    17.475419227  -1.11E-01*   3.33E-01*   5.99E-02*    1.16E+00   1.14E+01   EDIIS        0.
   4   -39.090344445   -61.098434587    17.197388225  -1.70E-02*   1.28E-01*   2.57E-02*    6.42E-01   1.13E+01   EDIIS        0.
   5   -39.096179381   -61.192260448    17.285379150  -5.83E-03*   1.82E-01*   3.21E-02*    3.10E-01   1.13E+01   c2DIIS       0.
   6   -39.101518606   -61.161627195    17.249406672  -5.34E-03*   1.06E-01*   1.18E-02*    2.73E-01   1.13E+01   c2DIIS       0.
   7   -39.099625242   -61.181237669    17.270910509   1.89E-03*   4.06E-02*   7.43E-02*    2.39E-01   1.13E+01   c2DIIS       0.
   8   -39.091449014   -61.166772864    17.264621933   8.18E-03*   4.37E-02*   6.04E-03*    1.75E-01   1.13E+01   QNRc2DIIS    0.
   9   -39.091794648   -61.167472138    17.264975573  -3.46E-04*   8.01E-02*   4.19E-03*    6.98E-02   1.13E+01   QNRc2DIIS    0.
  10   -39.092039224   -61.165523476    17.262782335  -2.45E-04*   9.89E-03*   1.62E-03*    1.19E-01   1.13E+01   QNRc2DIIS    0.
  11   -39.092054536   -61.166191020    17.263434567  -1.53E-05*   2.29E-02*   1.14E-03*    1.57E-02   1.13E+01   QNRc2DIIS    0.
  12   -39.092079642   -61.167917654    17.265136095  -2.51E-05*   4.52E-02*   1.48E-03*    4.02E-02   1.13E+01   QNRc2DIIS    0.
  13   -39.092043717   -61.166948801    17.264203167   3.59E-05*   7.76E-03*   3.18E-04*    6.64E-02   1.13E+01   QNRc2DIIS    0.
  14   -39.092045578   -61.166062565    17.263315070  -1.86E-06*   7.51E-04    1.23E-04     1.11E-02   1.13E+01   QNRc2DIIS    0.
  15   -39.092045658   -61.166014334    17.263266759  -8.02E-08*   3.64E-04    3.44E-05     1.58E-03   1.13E+01   QNRc2DIIS    0.
  16   -39.092045670   -61.165977102    17.263229515  -1.21E-08*   1.76E-04    1.65E-05     7.98E-04   1.13E+01   QNRc2DIIS    0.
  17   -39.092045673   -61.165995801    17.263248211  -2.88E-09*   1.28E-04    8.95E-06     3.34E-04   1.13E+01   QNRc2DIIS    0.
  18   -39.092045674   -61.165996676    17.263249084  -8.54E-10    2.56E-05    2.92E-06     1.95E-04   1.13E+01   QNRc2DIIS    0.
 
       Convergence after  18 Macro Iterations
--
 
 *****************************************************************************************************************************
 *                                                                                                                           *
 *                                             SCF/KS-DFT Program, Final results                                             *
 *                                                                                                                           *
 *                                                                                                                           *
 *                                                                                                                           *
 *                                                       Final Results                                                       *
 *                                                                                                                           *
 *****************************************************************************************************************************
 
::    Total SCF energy                                -39.0920456738
      One-electron energy                             -61.1659966755
      Two-electron energy                              17.2632490845
      Nuclear repulsion energy                          4.8107019173
      Kinetic energy (interpolated)                    39.4351044103
      Virial theorem                                    0.9913006763
      Total spin, S(S+1)                                0.7599855381
      Total spin, S                                     0.5049803670
      Max non-diagonal density matrix element           0.0000214139
      Max non-diagonal Fock matrix element              0.0000027258
 
 
      All orbitals with orbital energies smaller than  E(LUMO)+0.5 are printed
 
++    Molecular orbitals:
      -------------------
 
      Title: UHF orbitals (alpha)

      Molecular orbitals for symmetry species 1: a  
 
          Orbital            1         2         3         4         5         6         7         8         9        10    
          Energy           -7.6431   -4.7328   -0.5646   -0.2929   -0.2902    0.0335    0.0447    0.1087    0.1686    0.3464
          Occ. No.          1.0000    1.0000    1.0000    1.0000    1.0000    0.0000    0.0000    0.0000    0.0000    0.0000
 
        1 B1     1s         1.0000   -0.0001   -0.0263   -0.0000    0.0161    0.0261   -0.0000   -0.0000   -0.0000    0.0738
        2 B1     2s         0.0163    0.0003    0.8455   -0.0000    0.5090    0.2979   -0.0000   -0.0000    0.0000    0.7101
        3 B1     2px       -0.0000   -0.0000    0.0000   -0.5971   -0.0000    0.0000    0.4390    0.2719   -0.6590    0.0000
        4 B1     2py        0.0000   -0.0000    0.0000    0.7206    0.0000    0.0000    0.3638   -0.3282   -0.5461   -0.0000
        5 B1     2pz        0.0014    0.0001    0.0952    0.0000   -0.2197   -0.6308    0.0000    0.0000    0.0000    0.9755
        6 BE2    1s        -0.0002    1.0000   -0.0283   -0.0000    0.0016    0.0285   -0.0000   -0.0000   -0.0000   -0.0732
        7 BE2    2s        -0.0010    0.0023    0.2324    0.0000   -0.9044    0.2889   -0.0000    0.0000    0.0000   -0.6978
        8 BE2    2px        0.0000    0.0000   -0.0000   -0.1252   -0.0000    0.0000    0.5384   -0.6441    0.5806   -0.0000
        9 BE2    2py        0.0000   -0.0000    0.0000    0.1511    0.0000    0.0000    0.4462    0.7773    0.4811    0.0000
       10 BE2    2pz        0.0010   -0.0003   -0.0920    0.0000   -0.0896    0.6545   -0.0000   -0.0000    0.0000    1.0425
--
 
 
      Input file to MOLDEN was generated!
 
 
++    Static properties:
      ------------------
 
 
      LoProp Charges per center
 

                   B1       BE2   
      Nuclear      5.0000   4.0000
      Electronic  -5.2762  -3.7238
 
      Total       -0.2762   0.2762
--
 
 
      All orbitals with orbital energies smaller than  E(LUMO)+0.5 are printed
 
++    Molecular orbitals:
      -------------------
 
      Title: UHF orbitals (beta)

      Molecular orbitals for symmetry species 1: a  
 
          Orbital            1         2         3         4         5         6         7         8         9        10    
          Energy           -7.6280   -4.7319   -0.4834   -0.2726    0.0417    0.0558    0.0737    0.1849    0.2203    0.3690
          Occ. No.          1.0000    1.0000    1.0000    1.0000    0.0000    0.0000    0.0000    0.0000    0.0000    0.0000
 
        1 B1     1s         0.9999   -0.0000   -0.0295   -0.0152    0.0263   -0.0000   -0.0000   -0.0000   -0.0000    0.0730
        2 B1     2s         0.0135    0.0002    0.7566   -0.5892    0.2533   -0.0000   -0.0000    0.0000    0.0000    0.7636
        3 B1     2px       -0.0000   -0.0000    0.0000    0.0000    0.0000    0.3868   -0.2448   -0.6909   -0.6088   -0.0000
        4 B1     2py        0.0000   -0.0000    0.0000    0.0000    0.0000    0.3205    0.2954   -0.5726    0.7346    0.0000
        5 B1     2pz        0.0008    0.0001    0.0524    0.2791   -0.6005    0.0000    0.0000    0.0000   -0.0000    0.9826
        6 BE2    1s        -0.0001    1.0000   -0.0237   -0.0027    0.0278   -0.0000   -0.0000   -0.0000    0.0000   -0.0750
        7 BE2    2s        -0.0003    0.0022    0.3559    0.8404    0.3449   -0.0000   -0.0000    0.0000    0.0000   -0.7003
        8 BE2    2px        0.0000    0.0000   -0.0000   -0.0000    0.0000    0.5817   -0.5349    0.5372    0.3800    0.0000
        9 BE2    2py        0.0000    0.0000    0.0000    0.0000    0.0000    0.4820    0.6455    0.4452   -0.4586   -0.0000
       10 BE2    2pz        0.0003   -0.0004   -0.1367    0.0668    0.6746   -0.0000   -0.0000    0.0000   -0.0000    1.0264
--
 
 
++    Molecular charges:
      ------------------
 
      Mulliken charges per centre and basis function type
      ---------------------------------------------------
 
                            B1                      BE2   
                     alpha        beta       alpha        beta
      1s           1.0002      1.0001      1.0000      1.0000
      2s           0.9409      0.9074      0.8624      0.8468
      2px          0.3740      0.0000      0.0331      0.0000
      2pz          0.1305      0.1649      0.0660      0.0807
      2py          0.5446      0.0000      0.0482      0.0000
      Total        2.9902      2.0724      2.0098      1.9276
      Total              5.0627                  3.9373
 
      Charge           -0.0627                  0.0627
 
      Total electronic charge=    9.000000
 
      Total            charge=   -0.000000
--
 
 
      Input file to MOLDEN was generated!
 
 
++    Static properties:
      ------------------
 
 
      LoProp Charges per center
 

                   B1       BE2   
      Nuclear      5.0000   4.0000
      Electronic  -5.2762  -3.7238
 
      Total       -0.2762   0.2762
--
 
 
++    Natural Bond Order analysis
      ---------------------------
      Based on LoProp computed density
      -------------------------------------------------------------------------------------
      Atom A       Atom B       Bond Order
      -------------------------------------------------------------------------------------
      NBO located      0.999 non-bonded electrons on atom B1        
      NBO located      0.906 non-bonded electrons on atom B1        
      The remaining    2.748 electrons are to be considered as diffuse
--
 
 
++    Molecular orbitals:
      -------------------
 
      Title: Natural orbitals

      Molecular orbitals for symmetry species 1: a  
 
          Orbital            1         2         3         4         5         6         7         8         9        10    
          Energy           -7.6336   -4.7324   -0.4720   -0.3340   -0.0747    0.1158    0.2782    0.0506    0.1296    0.1764
          Occ. No.          2.0000    2.0000    1.9988    1.9962    1.0000    0.0038    0.0012    0.0000    0.0000    0.0000
 
        1 B1     1s         1.0003   -0.0000   -0.0160   -0.0039   -0.0000    0.0138   -0.0767    0.0000    0.0000   -0.0000
        2 B1     2s         0.0051    0.0003    0.4565   -0.8601    0.0000    0.1270   -0.7764    0.0000    0.0000   -0.0000
        3 B1     2px       -0.0000   -0.0000    0.0000   -0.0000   -0.5972    0.0000    0.0000    0.4390    0.2719   -0.6590
        4 B1     2py       -0.0000   -0.0000    0.0000    0.0000    0.7206   -0.0000   -0.0000    0.3638   -0.3281   -0.5461
        5 B1     2pz       -0.0013   -0.0002    0.1791    0.1866    0.0000    1.0217   -0.5441   -0.0000   -0.0000   -0.0000
        6 BE2    1s         0.0003    1.0000   -0.0229    0.0109   -0.0000   -0.0613    0.0503    0.0000    0.0000    0.0000
        7 BE2    2s        -0.0095    0.0011    0.6665    0.6390   -0.0000   -0.6228    0.4493    0.0000    0.0000    0.0000
        8 BE2    2px        0.0000    0.0000   -0.0000    0.0000   -0.1252   -0.0000   -0.0000    0.5384   -0.6441    0.5806
        9 BE2    2py        0.0000    0.0000    0.0000    0.0000    0.1511    0.0000    0.0000    0.4462    0.7773    0.4811
       10 BE2    2pz        0.0020   -0.0004   -0.0651    0.1211   -0.0000   -0.0630   -1.2283    0.0000    0.0000   -0.0000
--
 
 
++    Molecular properties:
      ---------------------
 
      Charge (e):
                      =   -0.0000
      Dipole Moment (Debye):
      Origin of the operator (Ang)=    0.0000    0.0000    0.0000
                   X= -3.7507E-13               Y=  1.9486E-13               Z=  6.3495E-01           Total=  6.3495E-01
      Quadrupole Moment (Debye*Ang):
      Origin of the operator (Ang)=    0.0000    0.0000    0.9903
                  XX= -1.3513E+01              XY=  1.5345E+00              XZ=  3.1666E-13              YY= -1.4093E+01
                  YZ= -2.8105E-13              ZZ= -1.3800E+01
      In traceless form (Debye*Ang)
                  XX=  4.3332E-01              XY=  2.3017E+00              XZ=  4.7500E-13              YY= -4.3684E-01
                  YZ= -4.2157E-13              ZZ=  3.5192E-03
--
 
 
      Input file to MOLDEN was generated!
 
 ###############################################################################
 ###############################################################################
 ###                                                                         ###
 ###                                                                         ###
 ###    WARNING: RunFile label nBas                                          ###
 ###    was used       87 times                                              ###
 ###                                                                         ###
 ###                                                                         ###
 ###############################################################################
 ###############################################################################
--- Stop Module: scf at Thu Apr 25 13:32:31 2024 /rc=_RC_ALL_IS_WELL_ ---
*** files: 2.20.LprOrb 2.20.LoProp.molden 2.20.scf.molden 2.20.scf.h5 2.20.UhfOrb 2.20.UnaOrb xmldump
    saved to directory /home/grierjones/DDCASPT2/delta_ML/BBe/2.20

*** symbolic link created: INPORB -> 2.20.UnaOrb
--- Start Module: mbpt2 at Thu Apr 25 13:32:31 2024 ---
 
()()()()()()()()()()()()()()()()()()()()()()()()()()()()()()()()()()()()()()()()()()()()()()()()()()

                                               &MBPT2

                                   only a single process is used
                       available to each process: 2.0 GB of memory, 1 thread?
                                             pid: 93811
()()()()()()()()()()()()()()()()()()()()()()()()()()()()()()()()()()()()()()()()()()()()()()()()()()
 
 
 ###############################################################################
 ###############################################################################
 ###                                                                         ###
 ###                                                                         ###
 ###    WARNING: MP2 implementation intended for RHF references only         ###
 ###                                                                         ###
 ###                                                                         ###
 ###############################################################################
 ###############################################################################
MBPT2 WARNING: Reference function according to RunFile:UHF-SCF 
I'll assume you know what you're doing and continue
 
 
WARNING!
Default frozen orbitals as non valence orbitals is overwritten by user input.
Default values:   2
 
 
      Cartesian coordinates in Angstrom:
      -----------------------------------------------------
      No.  Label        X            Y            Z        
      -----------------------------------------------------
       1   B1         0.00000000   0.00000000   0.00000000
       2   BE2        0.00000000   0.00000000   2.20000000
      -----------------------------------------------------
      Nuclear repulsion energy =    4.81070192
 
      Contents of RUNFILE file:
      -------------------------
 
      Symmetry species                           1
                                                 a
      Number of basis functions                 10
      Frozen occupied orbitals                   0
      Active occupied orbitals                   5
      Active external orbitals                   5
      Deleted external orbitals                  0
 
 
      Energies of the active occupied orbitals
 
      symmetry species 1                    -7.643092     -4.732834     -0.564601     -0.292867     -0.290221
 
 
      Energies of the active external orbitals
 
      symmetry species 1                     0.033513      0.044698      0.108738      0.168628      0.346368
 
 
      ********************************************************************************************************
      *                                               Results                                                *
      ********************************************************************************************************
 
 Conventional algorithm used...

       SCF energy                           =      -39.0920456738 a.u.
       Second-order correlation energy      =       -0.0521724353 a.u.

       Total energy                         =      -39.1442181091 a.u.
       Reference weight ( Cref**2 )         =        0.94371
 
::    Total MBPT2 energy                              -39.1442181091
 
 
       Zeroth-order energy (E0)             =      -22.2365304292 a.u.
 
       Shanks-type energy S1(E)             =      -39.1443800984 a.u.
 
 


       Data processing and timing information:

       Section                                              time(sec)
                                                          CPU  Elapsed

      Input data processing                              0.03      0.04
      Transformation of integrals                        0.00      0.01
      MBPT2 calculations (BJAI)                          0.00      0.00
      Total MBPT2 calculations                           0.03      0.05
 
 
--- Stop Module: mbpt2 at Thu Apr 25 13:32:31 2024 /rc=_RC_ALL_IS_WELL_ ---
*** files: xmldump
    saved to directory /home/grierjones/DDCASPT2/delta_ML/BBe/2.20

*** symbolic link created: INPORB -> 2.20.UnaOrb
--- Start Module: rasscf at Thu Apr 25 13:32:31 2024 ---
 
()()()()()()()()()()()()()()()()()()()()()()()()()()()()()()()()()()()()()()()()()()()()()()()()()()

                                              &RASSCF

                                   only a single process is used
                       available to each process: 2.0 GB of memory, 1 thread?
                                             pid: 93814
()()()()()()()()()()()()()()()()()()()()()()()()()()()()()()()()()()()()()()()()()()()()()()()()()()
 
 
      Header of the ONEINT file:
      --------------------------
      
      Integrals generated by Gateway/Seward, Thu Apr 25 13:32:30 2024
 
 
      OrdInt status: non-squared
 
 
      Cartesian coordinates in Angstrom:
      -----------------------------------------------------
      No.  Label        X            Y            Z        
      -----------------------------------------------------
       1   B1         0.00000000   0.00000000   0.00000000
       2   BE2        0.00000000   0.00000000   2.20000000
      -----------------------------------------------------
      Nuclear repulsion energy =    4.81070192
 
++    Wave function specifications:
      -----------------------------
 
      Number of closed shell electrons           8
      Number of electrons in active shells       1
      Max number of holes in RAS1 space          0
      Max nr of electrons in RAS3 space          0
      Number of inactive orbitals                4
      Number of active orbitals                  2
      Number of secondary orbitals               4
      Spin quantum number                      0.5
      State symmetry                             1
--
 
++    Orbital specifications:
      -----------------------
 
      Symmetry species                           1
                                                 a
      Frozen orbitals                            0
      Inactive orbitals                          4
      Active orbitals                            2
      RAS1 orbitals                              0
      RAS2 orbitals                              2
      RAS3 orbitals                              0
      Secondary orbitals                         4
      Deleted orbitals                           0
      Number of basis functions                 10
--
 
++    CI expansion specifications:
      ----------------------------
 
      Number of CSFs                             2
      Number of determinants                     2
      Number of root(s) required                 1
      Root chosen for geometry opt.              1
      CI root used                               1
         
      highest root included in the CI            1
      max. size of the explicit Hamiltonian      2
--
 
++    Optimization specifications:
      ----------------------------
 
      RASSCF algorithm: Conventional
      Maximum number of macro iterations       200
      Maximum number of SX iterations          100
      Threshold for RASSCF energy            1.000E-08
      Threshold for max MO rotation          1.000E-01
      Threshold for max BLB element          1.000E-04
      Level shift parameter                  5.000E-01
      Make Quasi-Newton update
--
 
      The MO-coefficients are taken from the file:
      /home/grierjones/DDCASPT2/delta_ML/BBe/2.10/2.10.RasOrb                                                                                                                                                                                                         
      Title: RASSCF average (pseudo-natural) orbitals                                      
 
      Total molecular charge    0.00
 
      ************************************************************************************************************************
      *                                                                                                                      *
      *                                            Wave function control section                                             *
      *                                                                                                                      *
      ************************************************************************************************************************
 
 
                                         RASSCF iterations: Energy and convergence statistics
                                         ----------------------------------------------------
 
      Iter CI   SX   CI       RASSCF       Energy    max ROT     max BLB   max BLB  Level Ln srch  Step   QN   Walltime
          iter iter root      energy       change     param      element    value   shift minimum  type update hh:mm:ss
 Nr of preliminary CI iterations:   1
        1   1    7    1   -39.09123309    0.00E+00  -1.39E-02    4  10 1  1.40E-02*  0.38   0.00    SX    NO    0:00:00
        2   1    7    1   -39.09160085   -3.68E-04* -9.00E-03    4  10 1  8.73E-03*  0.38   0.00    SX    NO    0:00:00
        3   1    7    1   -39.09175835   -1.57E-04* -7.29E-03    4  10 1  5.75E-03*  0.38   0.00    SX    NO    0:00:00
        4   1    7    1   -39.09183308   -7.47E-05* -6.09E-03    4  10 1  3.75E-03*  0.38   0.00    SX    NO    0:00:00
        5   1    7    1   -39.09186857   -3.55E-05* -7.00E-03    4  10 1  2.46E-03*  0.38   2.17    LS   YES    0:00:00
        6   1    6    1   -39.09189339   -2.48E-05* -4.17E-03    4   8 1  1.11E-03*  0.38   1.60    LS   YES    0:00:00
        7   1    6    1   -39.09190003   -6.65E-06* -5.74E-03    4   8 1  7.01E-04*  0.38   1.35    QN   YES    0:00:00
        8   1    6    1   -39.09190203   -2.00E-06* -5.65E-03    3  10 1  3.43E-04*  0.38   1.22    QN   YES    0:00:00
        9   1    6    1   -39.09190275   -7.14E-07* -8.85E-03    4  10 1 -2.43E-04*  0.38   1.60    QN   YES    0:00:00
       10   1    6    1   -39.09190322   -4.75E-07* -5.14E-03    3  10 1 -1.45E-04*  0.38   1.31    QN   YES    0:00:00
       11   1    6    1   -39.09190337   -1.51E-07* -7.58E-03    3  10 1 -1.49E-04*  0.38   2.50    LS   YES    0:00:00
       12   1    6    1   -39.09190343   -5.58E-08*  2.91E-03    4  10 1  2.02E-04*  0.38   0.78    QN   YES    0:00:00
       13   1    6    1   -39.09190358   -1.49E-07*  2.67E-02    4  10 1  1.39E-04*  0.38   2.50    QN   YES    0:00:00
       14   1    6    1   -39.09190414   -5.65E-07* -2.34E-02    4   8 1  2.39E-04*  0.38   1.01    QN   YES    0:00:00
       15   1    6    1   -39.09190430   -1.57E-07* -3.27E-02    3  10 1  3.22E-04*  0.38   2.50    LS   YES    0:00:00
       16   1    5    1   -39.09190399    3.05E-07* -2.00E-02    3  10 1  4.53E-04*  0.38   0.09    LS   YES    0:00:00
       17   1    5    1   -39.09190425   -2.58E-07* -1.20E-01*   3  10 1  4.93E-04*  0.38   1.73    QN   YES    0:00:00
       18   1    6    1   -39.09189903    5.22E-06* -6.55E-02    4   8 1  3.93E-04*  0.38   0.10    LS   YES    0:00:00
       19   1    6    1   -39.09190357   -4.54E-06* -1.43E-01*   4   8 1  6.92E-04*  0.38   1.79    QN   YES    0:00:00
       20   1    6    1   -39.09189722    6.35E-06* -6.72E-02    4   8 1 -1.03E-03*  0.37   0.22    LS   YES    0:00:00
       21   1    6    1   -39.09190320   -5.99E-06* -9.36E-02    4   8 1 -8.72E-04*  0.38   1.50    QN   YES    0:00:00
       22   1    6    1   -39.09190206    1.14E-06* -3.84E-02    4   8 1  4.06E-04*  0.38   0.36    LS   YES    0:00:00
       23   1    6    1   -39.09190418   -2.12E-06* -4.42E-02    4   8 1  3.02E-04*  0.38   1.45    QN   YES    0:00:00
       24   1    5    1   -39.09190377    4.10E-07* -2.00E-02    4   8 1 -4.22E-04*  0.38   0.32    LS   YES    0:00:00
       25   1    5    1   -39.09190435   -5.79E-07* -1.49E-02    3  10 1  3.17E-04*  0.38   1.40    QN   YES    0:00:00
       26   1    5    1   -39.09190440   -5.21E-08* -7.02E-03    4   5 1  9.01E-05   0.38   0.52    LS   YES    0:00:00
       27   1    5    1   -39.09190447   -7.11E-08*  6.02E-03    3  10 1  1.70E-04*  0.38   0.96    QN   YES    0:00:00
       28   1    5    1   -39.09190460   -1.26E-07* -2.93E-02    3  10 1  7.18E-05   0.38   2.27    QN   YES    0:00:00
       29   1    6    1   -39.09190479   -1.91E-07* -4.74E-03    3  10 1 -1.25E-04*  0.38   1.06    QN   YES    0:00:00
       30   1    5    1   -39.09190480   -1.49E-08* -7.01E-03    4   8 1 -2.01E-04*  0.38   2.50    LS   YES    0:00:00
       31   1    5    1   -39.09190479    9.09E-09  -5.35E-03    4   8 1 -2.13E-04*  0.38   0.24    QN   YES    0:00:00
       32   1    5    1   -39.09190488   -8.65E-08*  1.50E-03    4   8 1 -1.46E-04*  0.38   1.53    QN   YES    0:00:00
       33   1    6    1   -39.09190492   -3.65E-08* -4.08E-03    4   8 1  9.40E-05   0.38   0.69    QN   YES    0:00:00
       34   1    5    1   -39.09190494   -1.92E-08* -6.03E-03    3  10 1  3.61E-05   0.38   2.50    LS   YES    0:00:00
       35   1    4    1   -39.09190490    4.13E-08* -4.03E-03    4   8 1 -1.46E-04*  0.38   0.04    LS   YES    0:00:00
       36   1    5    1   -39.09190493   -3.68E-08*  9.30E-04    4   8 1 -8.29E-05   0.38   1.56    QN   YES    0:00:00
       37   1    5    1   -39.09190495   -1.38E-08* -2.23E-03    4   6 1  2.31E-05   0.38   0.90    QN   YES    0:00:00
       38   1    5    1   -39.09190495   -6.13E-09  -3.33E-03    4   6 1  1.67E-05   0.38   2.50    LS   YES    0:00:00
      Convergence after 38 iterations
       39   1    5    1   -39.09190496   -3.34E-09  -3.33E-03    4   8 1 -1.94E-05   0.38   2.50    LS   YES    0:00:00
 
      ************************************************************************************************************************
                                                      Wave function printout:
                       occupation of active orbitals, and spin coupling of open shells (u,d: Spin up or down)
      ************************************************************************************************************************
 
      Note: transformation to natural orbitals
      has been made, which may change the order of the CSFs.
 
      printout of CI-coefficients larger than  0.05 for root  1
      energy=     -39.091905
      conf/sym  11     Coeff  Weight
             2  0u   1.00000 1.00000
 
      Natural orbitals and occupation numbers for root  1
      sym 1:   0.000000   1.000000
 
      ************************************************************************************************************************
      *                                                                                                                      *
      *                                                    Final results                                                     *
      *                                                                                                                      *
      ************************************************************************************************************************
 
 
++    Wave function specifications:
      -----------------------------
 
      Number of closed shell electrons           8
      Number of electrons in active shells       1
      Max number of holes in RAS1 space          0
      Max nr of electrons in RAS3 space          0
      Number of inactive orbitals                4
      Number of active orbitals                  2
      Number of secondary orbitals               4
      Spin quantum number                      0.5
      State symmetry                             1
--
 
++    Orbital specifications:
      -----------------------
 
      Symmetry species                           1
                                                 a
      Frozen orbitals                            0
      Inactive orbitals                          4
      Active orbitals                            2
      RAS1 orbitals                              0
      RAS2 orbitals                              2
      RAS3 orbitals                              0
      Secondary orbitals                         4
      Deleted orbitals                           0
      Number of basis functions                 10
--
 
++    CI expansion specifications:
      ----------------------------
 
      Number of CSFs                             2
      Number of determinants                     2
      Number of root(s) required                 1
      CI root used                               1
      highest root included in the CI            1
      Root passed to geometry opt.               1
--
 
++    Final optimization conditions:
      ------------------------------
 
      Average CI energy                             -39.09190496
      RASSCF energy for state  1                    -39.09190496
      Super-CI energy                                -0.00000000
      RASSCF energy change                           -0.00000000
      Max change in MO coefficients               3.005E-03
      Max non-diagonal density matrix element    -3.326E-03
      Maximum BLB matrix element                 -1.935E-05
      (orbital pair   4,   8 in symmetry   1)
      Norm of electronic gradient            4.672E-05
--
 
 
      Final state energy(ies):
      ------------------------
 
::    RASSCF root number  1 Total energy:    -39.09190496
 
++    Molecular orbitals:
      -------------------
 
      Pseudonatural active orbitals and approximate occupation numbers
 
 
 
 
      Molecular orbitals for symmetry species 1: a  
 
 
      Orbital                 1         2         3         4         5         6         7         8         9        10
      Energy            -7.6357   -4.7319   -0.5232   -0.2815    0.1179    0.0000    0.0483    0.0554    0.1760    0.3572
      Occ. No.           2.0000    2.0000    2.0000    2.0000    0.0000    1.0000    0.0000    0.0000    0.0000    0.0000
 
     1 B1     1s         0.9999   -0.0000   -0.0277    0.0159    0.0090    0.0000    0.0164    0.0176    0.0004   -0.0736
     2 B1     2s         0.0149    0.0002    0.8069    0.5462    0.0957   -0.0000    0.1741    0.1868    0.0045   -0.7369
     3 B1     2px       -0.0000    0.0000    0.0000    0.0000    0.4040    0.8013   -0.2843    0.0353   -0.4124   -0.0082
     4 B1     2py        0.0000   -0.0000   -0.0000   -0.0000   -0.0773   -0.4839   -0.3169    0.3592   -0.7667    0.0015
     5 B1     2pz        0.0011    0.0001    0.0733   -0.2472   -0.2640   -0.0002   -0.3861   -0.4123   -0.0086   -0.9755
     6 BE2    1s        -0.0001    1.0000   -0.0261    0.0021    0.0126    0.0000    0.0176    0.0188    0.0004    0.0739
     7 BE2    2s        -0.0007    0.0023    0.2881   -0.8777    0.1393    0.0001    0.1980    0.2112    0.0043    0.6970
     8 BE2    2px        0.0000   -0.0000    0.0000   -0.0000   -0.7815    0.1676   -0.1183    0.5671    0.2877    0.0160
     9 BE2    2py       -0.0000    0.0000   -0.0000    0.0000    0.4759   -0.1012   -0.5600    0.2267    0.6751   -0.0089
    10 BE2    2pz        0.0007   -0.0003   -0.1133   -0.0769    0.2436    0.0001    0.4169    0.4468    0.0104   -1.0392
--
 
      Von Neumann Entropy (Root   1) =  0.50000
 

      Mulliken population analysis for root number:  1
      -----------------------------------------------
 
 
++    Molecular charges:
      ------------------
 
      Mulliken charges per centre and basis function type
      ---------------------------------------------------
 
                B1      BE2   
      1s       2.0003  2.0001
      2s       1.8526  1.7104
      2px      0.6734  0.0594
      2pz      0.2914  0.1452
      2py      0.2456  0.0217
      Total    5.0633  3.9367
 
      N-E     -0.0633  0.0633
 
      Total electronic charge=    9.000000
 
      Total            charge=   -0.000000
--
 
 

      Expectation values of various properties for root number:  1
      -----------------------------------------------------------
 
 
++    Molecular properties:
      ---------------------
 
      Charge (e):
                      =   -0.0000
      Dipole Moment (Debye):
      Origin of the operator (Ang)=    0.0000    0.0000    0.0000
                   X= -4.7157E-04               Y=  3.0461E-04               Z=  5.9207E-01           Total=  5.9207E-01
      Quadrupole Moment (Debye*Ang):
      Origin of the operator (Ang)=    0.0000    0.0000    0.9903
                  XX= -1.4532E+01              XY=  1.3818E+00              XZ=  1.7440E-04              YY= -1.3079E+01
                  YZ=  3.2604E-05              ZZ= -1.3772E+01
      In traceless form (Debye*Ang)
                  XX= -1.1073E+00              XY=  2.0726E+00              XZ=  2.6160E-04              YY=  1.0732E+00
                  YZ=  4.8906E-05              ZZ=  3.4043E-02
--
 

      Mulliken spin population analysis for root number:  1
      ---------------------------------------------------
 
 
++    Molecular charges:
      ------------------
 
      Mulliken spin population per centre and basis function type
      ---------------------------------------------------
 
                B1      BE2   
      1s       0.0000 -0.0000
      2s      -0.0000  0.0000
      2px      0.6734  0.0594
      2pz      0.0000  0.0000
      2py      0.2456  0.0217
      Total    0.9189  0.0811
 
      Total electronic spin=    1.000000
--
 
 

      LoProp population analysis for root number:  1
      -----------------------------------------------
 
 
++    LoProp analysis:
      ----------------
 
 
 
      Input file to MOLDEN was generated!
 
 
++    Static properties:
      ------------------
 
 
      LoProp Charges per center
 

                   B1       BE2   
      Nuclear      5.0000   4.0000
      Electronic  -5.2759  -3.7241
 
      Total       -0.2759   0.2759
--
 
 
      Natural Bond Order analysis for root number:  1
 
++    Natural Bond Order analysis
      ---------------------------
      Based on LoProp computed density
      -------------------------------------------------------------------------------------
      Atom A       Atom B       Bond Order
      -------------------------------------------------------------------------------------
      NBO located      0.999 non-bonded electrons on atom B1        
      NBO located      0.906 non-bonded electrons on atom B1        
      The remaining    2.748 electrons are to be considered as diffuse
--
 
--
 
 
      Input file to MOLDEN was generated!
 
 
      Input file to MOLDEN was generated!
 
      Average orbitals are written to the RASORB file
      Natural orbitals for root   1 are written to the RASORB.1 file
      Spin density orbitals for root   1 are written to the SPDORB.1 file
 
 ###############################################################################
 ###############################################################################
 ###                                                                         ###
 ###                                                                         ###
 ###    WARNING: RunFile label BirthCertificate                              ###
 ###    was used       45 times                                              ###
 ###                                                                         ###
 ###                                                                         ###
 ###############################################################################
 ###############################################################################
--- Stop Module: rasscf at Thu Apr 25 13:32:32 2024 /rc=_RC_ALL_IS_WELL_ ---
*** files: 2.20.LprOrb 2.20.rasscf.molden 2.20.rasscf.molden.1 2.20.LoProp.molden 2.20.RasOrb.1 2.20.RasOrb 2.20.rasscf.h5 2.20.SpdOrb.1 xmldump
    saved to directory /home/grierjones/DDCASPT2/delta_ML/BBe/2.20
--- Module rasscf spent 1 second ---

*** symbolic link created: INPORB -> 2.20.RasOrb
--- Start Module: caspt2 at Thu Apr 25 13:32:32 2024 ---
 
()()()()()()()()()()()()()()()()()()()()()()()()()()()()()()()()()()()()()()()()()()()()()()()()()()

                                              &CASPT2

                                   only a single process is used
                       available to each process: 2.0 GB of memory, 1 thread?
                                             pid: 93817
()()()()()()()()()()()()()()()()()()()()()()()()()()()()()()()()()()()()()()()()()()()()()()()()()()
 
 ###############################################################################
 ###############################################################################
 ###                                                                         ###
 ###                                                                         ###
 ###    WARNING: User changed nr of frozen orbitals.                         ###
 ###                                                                         ###
 ###                                                                         ###
 ###############################################################################
 ###############################################################################
 
++    Wave function specifications:
      -----------------------------
 
      Number of closed shell electrons           8
      Number of electrons in active shells       1
      Max number of holes in RAS1 space          0
      Max number of electrons in RAS3 space      0
      Number of inactive orbitals                4
      Number of active orbitals                  2
      Number of secondary orbitals               4
      Spin quantum number                      0.5
      State symmetry                             1
      Number of CSFs                             2
      Number of CASSCF root(s) available         1
      CASPT2 state passed to geometry opt.       1
      A file JOBMIX will be created
      This is a CASSCF or RASSCF reference function
--
 
++    Orbital specifications:
      -----------------------
 
      Symmetry species                           1
                                                 a
      Frozen orbitals                            0
      Inactive orbitals                          4
      Active orbitals                            2
      Secondary orbitals                         4
      Deleted orbitals                           0
      Number of basis functions                 10
--
 
++    CASPT2 specifications:
      ----------------------
 
      Type of calculation                        SS-CASPT2
      Fock operator                              state-specific
      IPEA shift                                 0.25
      Real shift                                 0.00
      Imaginary shift                            0.00
      The input orbitals will be transformed to quasi-canonical
--
 
--------------------------------------------------------------------------------
 Estimated memory requirements:
  POLY3 :                   250056
  RHS:                      250492
  SIGMA :                   250512
  PRPCTL:                        0
 Available workspace:    230392719
 
++ CASPT2 computation for group   1
 
********************************************************************************
 Multi-State initialization phase begins for group   1
--------------------------------------------------------------------------------
********************************************************************************
 Compute H0 matrices for state    1
--------------------------------------------------------------------------------
--------------------------------------------------------------------------------
 H0 matrices have been computed.
 
********************************************************************************
  CASPT2 EQUATION SOLUTION
--------------------------------------------------------------------------------
 
  Total nr of CASPT2 parameters:
   Before reduction:         656
   After  reduction:         438
 
 Variance of |WF0>:       0.0490433557
 
 The contributions to the second order correlation energy in atomic units.
-----------------------------------------------------------------------------------------------------------------------------
  IT.      VJTU        VJTI        ATVX        AIVX        VJAI        BVAT        BJAT        BJAI        TOTAL       RNORM  
-----------------------------------------------------------------------------------------------------------------------------
   1    -0.000496   -0.006787   -0.000000   -0.005507   -0.002607    0.000000   -0.000706   -0.032583   -0.048686    0.001017
   2    -0.000495   -0.006837   -0.000000   -0.005525   -0.002609    0.000000   -0.000708   -0.032668   -0.048843    0.000033
   3    -0.000496   -0.006837   -0.000000   -0.005525   -0.002609    0.000000   -0.000708   -0.032667   -0.048843    0.000002
-----------------------------------------------------------------------------------------------------------------------------
 
  FINAL CASPT2 RESULT:
 
      Reference energy:         -39.0919049552
      E2 (Non-variational):      -0.0488425367
      E2 (Variational):          -0.0488425369
      Total energy:             -39.1407474921
      Residual norm:              0.0000000904
      Reference weight:           0.94562
 
      Contributions to the CASPT2 correlation energy
      Active & Virtual Only:         -0.0000000000
      One Inactive Excited:          -0.0067288946
      Two Inactive Excited:          -0.0421136421
 
 
++ Denominators, etc.
--------------------------------------------------------------------------------------------------------------
 Report on small energy denominators, large coefficients, and large energy contributions.
CASE  SYMM ACTIVE-MIX  NON-ACTIVE INDICES          DENOMINATOR     RHS VALUE       COEFFICIENT     CONTRIBUTION
VJTU     1  Mu1.0003  In1.004                       0.69481077      0.01644968     -0.02580321     -0.00042445
VJTIP    1  Mu1.0001  In1.004 In1.003               0.93362315      0.03234891     -0.03424410     -0.00110776
VJTIP    1  Mu1.0001  In1.004 In1.004               0.69185576     -0.01850798      0.02655668     -0.00049151
VJTIP    1  Mu1.0002  In1.004 In1.004               0.80813977     -0.05801965      0.07387346     -0.00428611
ATVX     1  Mu1.0001  Se1.007                       0.23252769      0.00000089     -0.00000187     -0.00000000
ATVX     1  Mu1.0001  Se1.008                       0.23965138      0.00000158     -0.00000258     -0.00000000
AIVX     1  Mu1.0002  In1.004 Se1.007               0.58890254     -0.02695152      0.04544930     -0.00122493
AIVX     1  Mu1.0002  In1.004 Se1.008               0.59602622     -0.03167537      0.05349426     -0.00169445
VJAIP    1  Mu1.0002  Se1.007 In1.004 In1.004       0.73256638     -0.01461387      0.02713213     -0.00039651
BJAIP    1  Se1.007 In1.003 Se1.007 In1.003         1.14303103      0.04802732     -0.04212645     -0.00202322
BJAIP    1  Se1.008 In1.003 Se1.008 In1.003         1.15727840      0.04342111     -0.03812491     -0.00165543
BJAIP    1  Se1.007 In1.003 Se1.009 In1.003         1.27080058      0.03646622     -0.02864014     -0.00104440
BJAIP    1  Se1.009 In1.003 Se1.009 In1.003         1.39857014      0.04637738     -0.03312407     -0.00153621
BJAIP    1  Se1.010 In1.003 Se1.010 In1.003         1.76084943      0.05225709     -0.02964571     -0.00154920
BJAIP    1  Se1.007 In1.003 Se1.009 In1.004         1.02903319      0.04317154     -0.04184329     -0.00180644
BJAIP    1  Se1.008 In1.003 Se1.009 In1.004         1.03615687     -0.03349876      0.03250486     -0.00108887
BJAIP    1  Se1.007 In1.004 Se1.007 In1.004         0.65949625      0.05680784     -0.08713986     -0.00495023
BJAIP    1  Se1.007 In1.004 Se1.008 In1.004         0.66661993      0.03065192     -0.04780344     -0.00146527
BJAIP    1  Se1.008 In1.004 Se1.008 In1.004         0.67374361      0.06249097     -0.09417897     -0.00588533
BJAIP    1  Se1.007 In1.004 Se1.009 In1.004         0.78726580     -0.02045739      0.02565920     -0.00052492
BJAIP    1  Se1.009 In1.004 Se1.009 In1.004         0.91503535      0.03992968     -0.04370327     -0.00174506
BJAIP    1  Se1.010 In1.004 Se1.010 In1.004         1.27731465      0.03466049     -0.02714870     -0.00094099
BJAIM    1  Se1.007 In1.003 Se1.009 In1.004         1.21017284      0.03848454     -0.03208673     -0.00123484
BJAIM    1  Se1.008 In1.003 Se1.009 In1.004         1.21729652      0.04106804     -0.03422795     -0.00140567
--
 
   (Skipping property calculation,
    use PROP keyword to activate)
--
 
  Total CASPT2 energies:
::    CASPT2 Root  1     Total energy:    -39.14074749
 
  A NEW JOBIPH FILE NAMED 'JOBMIX' IS PREPARED.
********************************************************************************
--- Stop Module: caspt2 at Thu Apr 25 13:32:33 2024 /rc=_RC_ALL_IS_WELL_ ---
*** files: xmldump
    saved to directory /home/grierjones/DDCASPT2/delta_ML/BBe/2.20

.##################.
.# Happy landing! #.
.##################.

    Timing: Wall=2.90 User=2.12 System=0.27
************************************
*** WorkDir at /tmp/2.20 removed ***
************************************
