[Molden Format]
[N_Atoms]
                     2
[Atoms] (AU)
B1          1      5           0.00000000      0.00000000      0.00000000
BE2         2      4           0.00000000      0.00000000      4.15739747
[Charge] (Mulliken)
 -6.266928545575823E-002
  6.266928545571826E-002
[GTO] (AU)
   1
   s  14
  3.336021700E+04  1.039699991E-04
  4.972095200E+03  5.254399956E-04
  1.125641700E+03  2.509059979E-03
  3.164913600E+02  1.031887991E-02
  1.020072600E+02  3.636632969E-02
  3.629587300E+01  1.064607991E-01
  1.397141000E+01  2.403999880E-01
  5.741156000E+00  3.748581168E-01
  2.494268000E+00  3.100066974E-01
  1.114202000E+00  7.922455933E-02
  4.215490000E-01 -4.947589958E-03
  1.696330000E-01 -7.737119935E-03
  6.853500000E-02 -1.501079987E-03
  2.398700000E-02 -1.333299989E-04
   s  14
  3.336021700E+04 -2.030000008E-05
  4.972095200E+03 -1.025700004E-04
  1.125641700E+03 -4.911300020E-04
  3.164913600E+02 -2.026570008E-03
  1.020072600E+02 -7.261010030E-03
  3.629587300E+01 -2.197722009E-02
  1.397141000E+01 -5.408428022E-02
  5.741156000E+00 -1.022402604E-01
  2.494268000E+00 -1.423595206E-01
  1.114202000E+00 -4.658690019E-02
  4.215490000E-01  3.799402916E-01
  1.696330000E-01  5.890463624E-01
  6.853500000E-02  1.749075107E-01
  2.398700000E-02 -1.142030005E-03
   p   9
  5.500000000E+01  1.229800005E-03
  1.336610100E+01  8.827380035E-03
  4.135394000E+00  3.843340015E-02
  1.481256000E+00  1.150031805E-01
  6.021360000E-01  2.733674011E-01
  2.556360000E-01  4.061972116E-01
  1.111510000E-01  3.014967912E-01
  4.764800000E-02  7.684809030E-02
  1.667700000E-02 -8.170000032E-06
 
   2
   s  14
  2.262859900E+04  8.443999941E-05
  3.372318100E+03  4.601499968E-04
  7.603504000E+02  2.285389984E-03
  2.117404800E+02  9.648129932E-03
  6.722346800E+01  3.494469975E-02
  2.337217700E+01  1.061099893E-01
  8.721373000E+00  2.458240383E-01
  3.468091000E+00  3.862428773E-01
  1.452144000E+00  3.105526078E-01
  6.086150000E-01  6.415933955E-02
  2.576860000E-01 -2.265049984E-03
  1.041760000E-01 -5.217499963E-04
  4.242700000E-02 -8.757499938E-04
  1.484900000E-02  1.242199991E-04
   s  14
  2.262859900E+04 -1.586999994E-05
  3.372318100E+03 -8.656999968E-05
  7.603504000E+02 -4.302199984E-04
  2.117404800E+02 -1.825079993E-03
  6.722346800E+01 -6.682749976E-03
  2.337217700E+01 -2.095119992E-02
  8.721373000E+00 -5.200308981E-02
  3.468091000E+00 -9.849176964E-02
  1.452144000E+00 -1.355800695E-01
  6.086150000E-01 -6.429875976E-02
  2.576860000E-01  3.125414989E-01
  1.041760000E-01  6.270468577E-01
  4.242700000E-02  2.110231492E-01
  1.484900000E-02 -4.104669985E-03
   p   9
  3.371018400E+01  1.069960000E-03
  8.057649500E+00  6.828550001E-03
  2.836471400E+00  2.119065000E-02
  1.099965700E+00  5.843696001E-02
  4.433964000E-01  2.020920800E-01
  1.822264000E-01  4.582953101E-01
  7.572410000E-02  3.691239601E-01
  3.168540000E-02  6.611471001E-02
  1.108990000E-02  1.405160000E-03
 
[MO]
Sym=     1a  
Ene=    -7.6431
Spin= Alpha
Occup=    1.00000
   1         0.99996000
   2         0.01630870
   3        -0.00000000
   4         0.00000000
   5         0.00139308
   6        -0.00018633
   7        -0.00101195
   8         0.00000000
   9         0.00000000
  10         0.00099578
Sym=     1a  
Ene=    -7.6280
Spin= Beta
Occup=    1.00000
   1         0.99993988
   2         0.01347767
   3        -0.00000000
   4         0.00000000
   5         0.00076970
   6        -0.00008996
   7        -0.00033828
   8         0.00000000
   9         0.00000000
  10         0.00033665
Sym=     2a  
Ene=    -4.7328
Spin= Alpha
Occup=    1.00000
   1        -0.00005397
   2         0.00026214
   3        -0.00000000
   4        -0.00000000
   5         0.00010360
   6         0.99998434
   7         0.00234032
   8         0.00000000
   9        -0.00000000
  10        -0.00030440
Sym=     2a  
Ene=    -4.7319
Spin= Beta
Occup=    1.00000
   1        -0.00004019
   2         0.00020763
   3        -0.00000000
   4        -0.00000000
   5         0.00009752
   6         0.99998645
   7         0.00219043
   8         0.00000000
   9         0.00000000
  10        -0.00036962
Sym=     3a  
Ene=    -0.5646
Spin= Alpha
Occup=    1.00000
   1        -0.02629950
   2         0.84548520
   3         0.00000000
   4         0.00000000
   5         0.09519291
   6        -0.02832942
   7         0.23235220
   8        -0.00000000
   9         0.00000000
  10        -0.09200418
Sym=     3a  
Ene=    -0.4834
Spin= Beta
Occup=    1.00000
   1        -0.02954671
   2         0.75664470
   3         0.00000000
   4         0.00000000
   5         0.05238523
   6        -0.02372048
   7         0.35587577
   8        -0.00000000
   9         0.00000000
  10        -0.13669743
Sym=     4a  
Ene=    -0.2929
Spin= Alpha
Occup=    1.00000
   1        -0.00000000
   2        -0.00000000
   3        -0.59714721
   4         0.72059601
   5         0.00000000
   6        -0.00000000
   7         0.00000000
   8        -0.12521753
   9         0.15110386
  10         0.00000000
Sym=     4a  
Ene=    -0.2726
Spin= Beta
Occup=    1.00000
   1        -0.01516516
   2        -0.58924179
   3         0.00000000
   4         0.00000000
   5         0.27905133
   6        -0.00271030
   7         0.84040016
   8        -0.00000000
   9         0.00000000
  10         0.06678510
Sym=     5a  
Ene=    -0.2902
Spin= Alpha
Occup=    1.00000
   1         0.01608075
   2         0.50901707
   3        -0.00000000
   4         0.00000000
   5        -0.21965204
   6         0.00161843
   7        -0.90443724
   8        -0.00000000
   9         0.00000000
  10        -0.08958000
Sym=     5a  
Ene=     0.0417
Spin= Beta
Occup=    0.00000
   1         0.02628225
   2         0.25330759
   3         0.00000000
   4         0.00000000
   5        -0.60050375
   6         0.02782791
   7         0.34493520
   8         0.00000000
   9         0.00000000
  10         0.67457586
Sym=     6a  
Ene=     0.0335
Spin= Alpha
Occup=    0.00000
   1         0.02607418
   2         0.29789419
   3         0.00000000
   4         0.00000000
   5        -0.63080357
   6         0.02846868
   7         0.28893878
   8         0.00000000
   9         0.00000000
  10         0.65453816
Sym=     6a  
Ene=     0.0558
Spin= Beta
Occup=    0.00000
   1        -0.00000000
   2        -0.00000000
   3         0.38676414
   4         0.32050570
   5         0.00000000
   6        -0.00000000
   7        -0.00000000
   8         0.58169325
   9         0.48204056
  10        -0.00000000
Sym=     7a  
Ene=     0.0447
Spin= Alpha
Occup=    0.00000
   1        -0.00000000
   2        -0.00000000
   3         0.43901649
   4         0.36380644
   5         0.00000000
   6        -0.00000000
   7        -0.00000000
   8         0.53842558
   9         0.44618528
  10        -0.00000000
Sym=     7a  
Ene=     0.0737
Spin= Beta
Occup=    0.00000
   1        -0.00000000
   2        -0.00000000
   3        -0.24483107
   4         0.29544522
   5         0.00000000
   6        -0.00000000
   7        -0.00000000
   8        -0.53490212
   9         0.64548293
  10        -0.00000000
Sym=     8a  
Ene=     0.1087
Spin= Alpha
Occup=    0.00000
   1        -0.00000000
   2        -0.00000000
   3         0.27194605
   4        -0.32816570
   5         0.00000000
   6        -0.00000000
   7         0.00000000
   8        -0.64409628
   9         0.77725090
  10        -0.00000000
Sym=     8a  
Ene=     0.1850
Spin= Beta
Occup=    0.00000
   1        -0.00000000
   2         0.00000000
   3        -0.69091594
   4        -0.57255178
   5         0.00000000
   6        -0.00000000
   7         0.00000000
   8         0.53720043
   9         0.44517002
  10         0.00000000
Sym=     9a  
Ene=     0.1686
Spin= Alpha
Occup=    0.00000
   1        -0.00000000
   2         0.00000000
   3        -0.65895057
   4        -0.54606256
   5         0.00000000
   6        -0.00000000
   7         0.00000000
   8         0.58055941
   9         0.48110096
  10         0.00000000
Sym=     9a  
Ene=     0.2203
Spin= Beta
Occup=    0.00000
   1        -0.00000000
   2         0.00000000
   3        -0.60876694
   4         0.73461790
   5        -0.00000000
   6         0.00000000
   7         0.00000000
   8         0.38002522
   9        -0.45858819
  10        -0.00000000
Sym=    10a  
Ene=     0.3464
Spin= Alpha
Occup=    0.00000
   1         0.07383899
   2         0.71005710
   3         0.00000000
   4        -0.00000000
   5         0.97549035
   6        -0.07315956
   7        -0.69778375
   8        -0.00000000
   9         0.00000000
  10         1.04245065
Sym=    10a  
Ene=     0.3690
Spin= Beta
Occup=    0.00000
   1         0.07299855
   2         0.76358900
   3        -0.00000000
   4         0.00000000
   5         0.98264237
   6        -0.07496244
   7        -0.70034517
   8         0.00000000
   9        -0.00000000
  10         1.02635993
