[Molden Format]
[N_Atoms]
                     2
[Atoms] (AU)
B1          1      5           0.00000000      0.00000000      0.00000000
F2          2      9           0.00000000      0.00000000      3.02356180
[Charge] (Mulliken)
   1.95316685324282     
  4.683314675715167E-002
[GTO] (AU)
   1
   s  14
  3.336021700E+04  1.039699991E-04
  4.972095200E+03  5.254399956E-04
  1.125641700E+03  2.509059979E-03
  3.164913600E+02  1.031887991E-02
  1.020072600E+02  3.636632969E-02
  3.629587300E+01  1.064607991E-01
  1.397141000E+01  2.403999880E-01
  5.741156000E+00  3.748581168E-01
  2.494268000E+00  3.100066974E-01
  1.114202000E+00  7.922455933E-02
  4.215490000E-01 -4.947589958E-03
  1.696330000E-01 -7.737119935E-03
  6.853500000E-02 -1.501079987E-03
  2.398700000E-02 -1.333299989E-04
   s  14
  3.336021700E+04 -2.030000008E-05
  4.972095200E+03 -1.025700004E-04
  1.125641700E+03 -4.911300020E-04
  3.164913600E+02 -2.026570008E-03
  1.020072600E+02 -7.261010030E-03
  3.629587300E+01 -2.197722009E-02
  1.397141000E+01 -5.408428022E-02
  5.741156000E+00 -1.022402604E-01
  2.494268000E+00 -1.423595206E-01
  1.114202000E+00 -4.658690019E-02
  4.215490000E-01  3.799402916E-01
  1.696330000E-01  5.890463624E-01
  6.853500000E-02  1.749075107E-01
  2.398700000E-02 -1.142030005E-03
   p   9
  5.500000000E+01  1.229800005E-03
  1.336610100E+01  8.827380035E-03
  4.135394000E+00  3.843340015E-02
  1.481256000E+00  1.150031805E-01
  6.021360000E-01  2.733674011E-01
  2.556360000E-01  4.061972116E-01
  1.111510000E-01  3.014967912E-01
  4.764800000E-02  7.684809030E-02
  1.667700000E-02 -8.170000032E-06
 
   2
   s  14
  1.031094600E+05  1.713099991E-04
  1.528100700E+04  7.123999962E-04
  3.441539200E+03  2.990479984E-03
  9.670948300E+02  1.164036994E-02
  3.140353400E+02  3.968642979E-02
  1.134423000E+02  1.128546094E-01
  4.464472700E+01  2.473650687E-01
  1.894287400E+01  3.672702681E-01
  8.532743000E+00  2.896286985E-01
  3.919401000E+00  7.786681959E-02
  1.568157000E+00  4.562139976E-03
  6.232900000E-01  2.468879987E-03
  2.408610000E-01  1.106309994E-03
  8.430100000E-02  1.739699991E-04
   s  14
  1.031094600E+05 -4.044999995E-05
  1.528100700E+04 -1.682299998E-04
  3.441539200E+03 -7.084299991E-04
  9.670948300E+02 -2.767999996E-03
  3.140353400E+02 -9.611379987E-03
  1.134423000E+02 -2.833957996E-02
  4.464472700E+01 -6.839343991E-02
  1.894287400E+01 -1.237379298E-01
  8.532743000E+00 -1.512859698E-01
  3.919401000E+00 -9.099909988E-03
  1.568157000E+00  3.716257695E-01
  6.232900000E-01  5.500214393E-01
  2.408610000E-01  2.092318697E-01
  8.430100000E-02  8.074639989E-03
   p   9
  2.453302900E+02  1.024860004E-03
  5.691900500E+01  8.344290032E-03
  1.760456800E+01  4.078927016E-02
  6.274995000E+00  1.351370605E-01
  2.447030000E+00  2.798830811E-01
  9.950600000E-01  3.597966414E-01
  4.039730000E-01  3.055347412E-01
  1.548100000E-01  1.354703905E-01
  5.418400000E-02  2.804449011E-02
 
[MO]
Sym=     1a  
Ene=   -27.2130
Spin= Alpha
Occup=    2.00000
   1        -0.00005178
   2        -0.00024178
   3        -0.00000001
   4         0.00000000
   5        -0.00018521
   6         1.00000600
   7        -0.00354340
   8        -0.00000002
   9         0.00000000
  10        -0.00075335
Sym=     2a  
Ene=    -8.8868
Spin= Alpha
Occup=    2.00000
   1         0.99985857
   2         0.01249796
   3        -0.00000047
   4         0.00000002
   5        -0.00058750
   6         0.00000637
   7         0.00025280
   8         0.00000115
   9        -0.00000004
  10        -0.00144952
Sym=     3a  
Ene=    -2.3224
Spin= Alpha
Occup=    2.00000
   1        -0.01721941
   2         0.02799720
   3        -0.00000458
   4         0.00000016
   5         0.04056750
   6         0.00126449
   7         0.97052578
   8        -0.00002641
   9         0.00000095
  10        -0.10992067
Sym=     4a  
Ene=    -1.3961
Spin= Alpha
Occup=    2.00000
   1         0.00003224
   2        -0.00020935
   3         0.06550227
   4        -0.00234452
   5        -0.00020730
   6         0.00001429
   7         0.00027383
   8         0.98573852
   9        -0.03528246
  10         0.00080894
Sym=     5a  
Ene=    -1.3961
Spin= Alpha
Occup=    2.00000
   1         0.00000000
   2        -0.00000000
   3         0.00234452
   4         0.06550227
   5        -0.00000000
   6         0.00000000
   7         0.00000000
   8         0.03528248
   9         0.98573897
  10         0.00000000
Sym=     6a  
Ene=    -1.3421
Spin= Alpha
Occup=    1.81718
   1        -0.03038745
   2         0.61873648
   3         0.00013453
   4        -0.00000482
   5         0.13632245
   6        -0.02008192
   7        -0.30950027
   8         0.00083678
   9        -0.00002995
  10        -0.62496039
Sym=     7a  
Ene=    -0.0023
Spin= Alpha
Occup=    0.18282
   1        -0.02350874
   2        -0.87674612
   3        -0.00035297
   4         0.00001263
   5         0.00542980
   6         0.01832701
   7         0.14652897
   8         0.00046709
   9        -0.00001672
  10        -0.78333048
Sym=     8a  
Ene=    -0.6898
Spin= Alpha
Occup=    0.00000
   1         0.00000187
   2        -0.00033517
   3         1.01312135
   4        -0.03626250
   5         0.00042410
   6        -0.00001029
   7        -0.00008864
   8        -0.24294925
   9         0.00869585
  10        -0.00009958
Sym=     9a  
Ene=    -0.6898
Spin= Alpha
Occup=    0.00000
   1         0.00000000
   2        -0.00000000
   3        -0.03626251
   4        -1.01312150
   5         0.00000000
   6        -0.00000000
   7        -0.00000000
   8         0.00869585
   9         0.24294936
  10        -0.00000000
Sym=    10a  
Ene=    -0.5540
Spin= Alpha
Occup=    0.00000
   1        -0.01996999
   2        -0.10030420
   3         0.00039163
   4        -0.00001402
   5        -1.10390831
   6         0.04768502
   7         0.43322776
   8        -0.00017378
   9         0.00000622
  10        -0.37027883
