*******************************************************************************************
*** WorkDir at /lustre/isaac/scratch/gjones39/ANO-RCC-VTZP/ozone_171.25/3193835 cleaned ***
*******************************************************************************************
   This run of MOLCAS is using the pymolcas driver

                             OPE
                             OPE          NMOL  CASOP  ENMOLC A   SO
                 OPE        NMOLC        AS  OP EN  MO LC     AS  OP
                OPENM       OL CA        SO  PE NM  OL CA     SOP EN
                OP EN      MO   LC       AS  OP ENMOL  CASO   PENMOL
                OP  EN     MO   LC       AS  OP EN     MO     LC ASO
               OP   E  NMOL  C  AS       OP  EN MO     LC     AS  OP
               OP  E   NMO   LC AS        OPEN  MO     LCASOP EN   M
               O  PEN   MO  LCA  SO
            OPE   NMO   L   CAS    OP
        OPENMOL  CASOP     ENMOL   CASOPE
     OPENMOLCA   SOPENMOLCASOPEN   MOLCASOPE
    OPENMOLCAS   OP           EN   MOL    CAS
    OPENMOLCAS       OP  ENM        O     LCA
    OPENMOLCAS    OPEN  MOLCASO     P  E  NMO
    OPENMOLCAS     OP               E  N  MOL
    OPENMOLCA   SO           PENM   O  L  CAS    OPEN    MO    LCAS
    OPENMOLCA   SOP           ENM   O  L  CAS   OP  EN  MOLC  AS   O
    OPENMOLCA   SOPE           NM      O  LCA   S      OP  EN MO
    OPENMOLC                AS         O  PEN   M      OL  CA  SOPE
    OPENMO        LCASOPE  NMOL        C  ASO   P      ENMOLC     AS
    OPE     NMO      LCA  SO     P     E   NM   OL  CA SO  PE N   MO
          OPENMOLCA            SOPE   NMO        LCAS  O    P  ENMO
     OPENMOLCASOPENMOLCASOPENMOLCASOPENMOLCA
        OPENMOLCASOPENMOLCASOPENMOLCASOPE
            OPENMOLCASOPENMOLCASOPENM
               OPENMOLCASOPENMOLCA        version: f37762c57-dirty
                   OPENMOLCASO
                       OPE                tag:

 OpenMolcas is free software; you can redistribute it and/or modify it
 under the terms of the GNU Lesser General Public License version 2.1.
 OpenMolcas is distributed in the hope that it will be useful, but it
 is provided "as is" and without any express or implied warranties.
 For more details see the full text of the license in the file
 LICENSE or in <http://www.gnu.org/licenses/>.

                 Copyright (C) The OpenMolcas Authors
           For the author list and the recommended citation,
                   consult the file CONTRIBUTORS.md

           *************************************************
           * pymolcas version py2.05                       *
           *   build c53fbf9a0f911de0c7c16766b0715e61      *
           *   (after the EMIL interpreter by V. Veryazov) *
           *************************************************

configuration info
------------------
C Compiler ID: GNU
C flags: -std=gnu99
Fortran Compiler ID: Intel
Fortran flags: -fpp -i8 -r8 -heap-arrays
Definitions: _MOLCAS_;_I8_;_LINUX_
Parallel: OFF (GA=OFF)


   ---------------------------------------------------------------------------------------
  |
  |              Project: ozone_171.25
  |       Submitted from: /lustre/isaac/scratch/gjones39/ANO-RCC-VTZP/ozone_171.25
  |         Scratch area: /lustre/isaac/scratch/gjones39/ANO-RCC-VTZP/ozone_171.25/3193835
  |      Save outputs to: /lustre/isaac/scratch/gjones39/ANO-RCC-VTZP/ozone_171.25
  |               Molcas: /lustre/isaac/proj/UTK0022/Grier2025/Test/build
  |
  | Scratch area is empty
  |
  |       MOLCAS_DRIVER = /nfs/home/gjones39/bin/pymolcas
  | MOLCAS_KEEP_WORKDIR = NO
  |      MOLCAS_MAXITER = 100
  |  MOLCAS_NEW_WORKDIR = YES
  |       MOLCAS_NPROCS = 1
  |       MOLCAS_SOURCE = /lustre/isaac/proj/UTK0022/Grier2025/Test
  |    MOLCAS_STRUCTURE = 0
  |
   ---------------------------------------------------------------------------------------

++ ---------   Input file   ---------

&GATEWAY
coord=ozone_171.25.xyz
Basis = ANO-RCC-VTZP
Group = nosymm
End of Input

&SEWARD
End of Input

&SCF
FileOrb
/lustre/isaac/scratch/gjones39/ANO-RCC-VTZP/ozone_171.00/ozone_171.00.ScfOrb

>>> COPY $WorkDir/ozone_171.25.scf.h5 $CurrDir/

&RASSCF
Title= RASSCF
ITERation
200 100
CIMX
200
SDAV
500
FileOrb
/lustre/isaac/scratch/gjones39/ANO-RCC-VTZP/ozone_171.00/ozone_171.00.RasOrb
CIROOT
3 3 1
NACTEL
12 0 0
Inactive
6
RAS2
9
Symmetry
1
Spin
1
orblisting
all

>>> COPY $WorkDir/ozone_171.25.rasscf.h5 $CurrDir/

>>> COPY $WorkDir/GMJ_Fock_MO.csv $CurrDir/ozone_171.25.GMJ_Fock_MO.csv

&MOTRA
Frozen=0
LUMORB

>>> COPY $WorkDir/GMJ_one_int_indx.csv $CurrDir/ozone_171.25.GMJ_one_int_indx.csv

>>> COPY $WorkDir/GMJ_one_int.csv $CurrDir/ozone_171.25.GMJ_one_int.csv

>>> COPY $WorkDir/GMJ_two_int_indx.csv $CurrDir/ozone_171.25.GMJ_two_int_indx.csv

>>> COPY $WorkDir/GMJ_two_int.csv $CurrDir/ozone_171.25.GMJ_two_int.csv

&CASPT2

Multistate
ALL

Frozen
0

MAXITER
50

>>> FOREACH k IN (1,2,3)

  >>> FOREACH i IN (B,E,F,G,H)

    >>> FOREACH j IN (P,M)

      >>> IF (-FILE GMJ_e2_${i}_${j}_${k}_.csv)

        >>> COPY $WorkDir/GMJ_RHS_${i}_${j}_${k}_.csv $CurrDir/GMJ_RHS_${i}_${j}_${k}_.csv

        >>> COPY $WorkDir/GMJ_IVECW_${i}_${j}_${k}_.csv $CurrDir/GMJ_IVECW_${i}_${j}_${k}_.csv

        >>> COPY $WorkDir/GMJ_IVECX_${i}_${j}_${k}_.csv $CurrDir/GMJ_IVECX_${i}_${j}_${k}_.csv

        >>> COPY $WorkDir/GMJ_IVECC2_${i}_${j}_${k}_.csv $CurrDir/GMJ_IVECC2_${i}_${j}_${k}_.csv

        >>> COPY $WorkDir/GMJ_e2_${i}_${j}_${k}_.csv $CurrDir/GMJ_e2_${i}_${j}_${k}_.csv

      >>> END IF

    >>> END FOREACH

  >>> END FOREACH

>>> END FOREACH

>>> FOREACH j IN (1,2,3)

  >>> FOREACH i IN (A,C,D)

    >>> IF (-FILE GMJ_e2_${i}_${j}_.csv)

      >>> COPY $WorkDir/GMJ_RHS_${i}_${j}_.csv $CurrDir/GMJ_RHS_${i}_${j}_.csv

      >>> COPY $WorkDir/GMJ_IVECW_${i}_${j}_.csv $CurrDir/GMJ_IVECW_${i}_${j}_.csv

      >>> COPY $WorkDir/GMJ_IVECX_${i}_${j}_.csv $CurrDir/GMJ_IVECX_${i}_${j}_.csv

      >>> COPY $WorkDir/GMJ_IVECC2_${i}_${j}_.csv $CurrDir/GMJ_IVECC2_${i}_${j}_.csv

      >>> COPY $WorkDir/GMJ_e2_${i}_${j}_.csv $CurrDir/GMJ_e2_${i}_${j}_.csv

    >>> END IF

  >>> END FOREACH

>>> END FOREACH

-- ----------------------------------

--- Start Module: gateway at Wed Apr 30 09:32:53 2025 ---
 
()()()()()()()()()()()()()()()()()()()()()()()()()()()()()()()()()()()()()()()()()()()()()()()()()()

                                              &GATEWAY

                                   only a single process is used
                       available to each process: 62 GB of memory, 1 thread?
()()()()()()()()()()()()()()()()()()()()()()()()()()()()()()()()()()()()()()()()()()()()()()()()()()
 
 
++    Symmetry information:
      ---------------------
 
                    Character Table for C1 
 
                             E  
                    a        1  x, y, xy, Rz, z, xz, Ry, yz, Rx, I
--
 
 
++    Basis set information:
      ----------------------
 
 
      Basis set label: O.ANO-RCC...4S3P2D1F.
 
      Electronic valence basis set:
      ------------------
      Associated Effective Charge   8.000000 au
      Associated Actual Charge      8.000000 au
      Nuclear Model: Point charge
 
      Shell  nPrim  nBasis  Cartesian Spherical Contaminant
         s      14       4        X                  
         p       9       3        X                  
         d       4       2                 X         
         f       3       1                 X         
--
 
 
++    Molecular structure info:
      -------------------------
 
                    ************************************************ 
                    **** Cartesian Coordinates / Bohr, Angstrom **** 
                    ************************************************ 
 
     Center  Label                x              y              z                     x              y              z
        1      O1               0.184231       2.408033       0.000000              0.097491       1.274276       0.000000
        2      O2               0.000000       0.000000       0.000000              0.000000       0.000000       0.000000
        3      O3               0.184231      -2.408033       0.000000              0.097491      -1.274276       0.000000
 
                    *************************************** 
                    *    InterNuclear Distances / Bohr    * 
                    *************************************** 
 
               1 O1            2 O2            3 O3    
    1 O1       0.000000
    2 O2       2.415070        0.000000
    3 O3       4.816065        2.415070        0.000000
 
                    ******************************************* 
                    *    InterNuclear Distances / Angstrom    * 
                    ******************************************* 
 
               1 O1            2 O2            3 O3    
    1 O1       0.000000
    2 O2       1.278000        0.000000
    3 O3       2.548552        1.278000        0.000000
 
                    ************************************** 
                    *    Valence Bond Angles / Degree    * 
                    ************************************** 
                          Atom centers                 Phi
                      1 O1       2 O2       3 O3       171.25
--
 
 
            Nuclear Potential Energy             66.28939371 au
 
--- Stop Module: gateway at Wed Apr 30 09:33:00 2025 /rc=_RC_ALL_IS_WELL_ ---
*** files: xmldump
    saved to directory /lustre/isaac/scratch/gjones39/ANO-RCC-VTZP/ozone_171.25
--- Module gateway spent 6 seconds ---

--- Start Module: seward at Wed Apr 30 09:33:00 2025 ---
 
()()()()()()()()()()()()()()()()()()()()()()()()()()()()()()()()()()()()()()()()()()()()()()()()()()

                                              &SEWARD

                                   only a single process is used
                       available to each process: 62 GB of memory, 1 thread?
()()()()()()()()()()()()()()()()()()()()()()()()()()()()()()()()()()()()()()()()()()()()()()()()()()
 
               SEWARD will generate:
                  Multipole Moment integrals up to order  2
                  Kinetic Energy integrals
                  Nuclear Attraction integrals (point charge)
                  One-Electron Hamiltonian integrals
                  Velocity integrals
                  Relativistic Douglas-Kroll-Hess integrals:
                    - Parametrization         : EXP
                    - DKH order of Hamiltonian: 2
                    - DKH order of Properties : 0
                         - multipole moment operators
                         - electric potential operators
                         - contact operators
                  Atomic mean-field integrals
                  Two-Electron Repulsion integrals
 
                   Integrals are discarded if absolute value <: 0.10E-13
                   Integral cutoff threshold is set to       <: 0.10E-15
 
            Nuclear Potential Energy             66.28939371 au
 
 
      Basis set specifications :
      Symmetry species         a  
      Basis functions           90
 
 
  Input file to MOLDEN was generated!
 
--- Stop Module: seward at Wed Apr 30 09:33:21 2025 /rc=_RC_ALL_IS_WELL_ ---
*** files: ozone_171.25.GssOrb ozone_171.25.guessorb.h5 ozone_171.25.guessorb.molden xmldump
    saved to directory /lustre/isaac/scratch/gjones39/ANO-RCC-VTZP/ozone_171.25
--- Module seward spent 20 seconds ---

*** symbolic link created: INPORB -> ozone_171.25.GssOrb
--- Start Module: scf at Wed Apr 30 09:33:21 2025 ---
 
()()()()()()()()()()()()()()()()()()()()()()()()()()()()()()()()()()()()()()()()()()()()()()()()()()

                                                &SCF

                                   only a single process is used
                       available to each process: 62 GB of memory, 1 thread?
()()()()()()()()()()()()()()()()()()()()()()()()()()()()()()()()()()()()()()()()()()()()()()()()()()
 
++    Input section:
      --------------
 
      Header of the integral files:
      
       Integrals generated by seward 4.2.0  , Wed Apr 30 09:33:04 2025
 
 
      Cartesian coordinates in Angstrom:
      -----------------------------------------------------
      No.  Label        X            Y            Z        
      -----------------------------------------------------
       1   O1         0.09749100   1.27427600   0.00000000
       2   O2         0.00000000   0.00000000   0.00000000
       3   O3         0.09749100  -1.27427600   0.00000000
      -----------------------------------------------------
      Nuclear repulsion energy =   66.28939371
--
 
++    Orbital specifications:
      -----------------------
 
      Symmetry species               1
                                     a
      Frozen orbitals                0
      Occupied orbitals             12
      Secondary orbitals            78
      Deleted orbitals               0
      Total number of orbitals      90
      Number of basis functions     90
--
 
      Molecular charge                           0.000
 
++    Optimization specifications:
      ----------------------------
 
      SCF Algorithm: Conventional
      Minimized density differences are used
      Number of density matrices in core                5
      Maximum number of NDDO SCF iterations           400
      Maximum number of HF SCF iterations             400
      Threshold for SCF energy change            0.10E-08
      Threshold for density matrix               0.10E-03
      Threshold for Fock matrix                  0.15E-03
      Threshold for linear dependence            0.10E-08
      Threshold at which DIIS is turned on       0.15E+00
      Threshold at which QNR/C2DIIS is turned on 0.75E-01
      Threshold for Norm(delta) (QNR/C2DIIS)     0.20E-04
      DIIS extrapolation of the SCF procedure
      All orbitals punched on: SCFORB
--
 
      Input vectors read from INPORB
      Orbital file label: * SCF orbitals
 
 
++ Convergence information
                                   SCF        iterations: Energy and convergence statistics
 
Iter     Tot. SCF        One-elec.       Two-elec.     Energy      Max Dij or  Max Fij      DNorm      TNorm      AccCon     Time
         Energy          Energy          Energy        Change      Delta Norm                                                in Sec.
   1  -224.407600017  -440.338103507   149.641109784   0.00E+00    0.16E-02*   0.78E-03*    0.75E+01   0.11E+03   None         0.
   2  -224.407607368  -440.338088850   149.641087776  -0.74E-05*   0.83E-03*   0.40E-03*    0.91E-02   0.11E+03   EDIIS        0.
   3  -224.407608681  -440.338460228   149.641457841  -0.13E-05*   0.22E-03*   0.34E-03*    0.12E-02   0.11E+03   c2DIIS       0.
   4  -224.407609116  -440.338530565   149.641527744  -0.44E-06*   0.10E-03*   0.52E-04     0.42E-03   0.11E+03   QNRc2DIIS    0.
   5  -224.407609143  -440.338633284   149.641630435  -0.27E-07*   0.29E-03*   0.39E-04     0.17E-03   0.11E+03   QNRc2DIIS    0.
   6  -224.407609174  -440.338525411   149.641522531  -0.31E-07*   0.30E-04*   0.13E-04     0.20E-03   0.11E+03   QNRc2DIIS    0.
   7  -224.407609174  -440.338685033   149.641682153  -0.64E-09    0.11E-04    0.76E-05     0.87E-04   0.11E+03   QNRc2DIIS    0.
 
       Convergence after  7 Macro Iterations
--
 
 *****************************************************************************************************************************
 *                                                                                                                           *
 *                                             SCF/KS-DFT Program, Final results                                             *
 *                                                                                                                           *
 *                                                                                                                           *
 *                                                                                                                           *
 *                                                       Final Results                                                       *
 *                                                                                                                           *
 *****************************************************************************************************************************
 
::    Total SCF energy                               -224.4076091742
      One-electron energy                            -440.3386850331
      Two-electron energy                             149.6416821530
      Nuclear repulsion energy                         66.2893937059
      Kinetic energy (interpolated)                   225.2916230173
      Virial theorem                                    0.9960761353
      Total spin, S(S+1)                                0.0000000000
      Total spin, S                                     0.0000000000
      Max non-diagonal density matrix element           0.0000109213
      Max non-diagonal Fock matrix element              0.0000040801
 
 
      All orbitals with orbital energies smaller than  E(LUMO)+0.5 are printed
 
++    Molecular orbitals:
      -------------------
 
      Title: SCF orbitals

      Molecular orbitals for symmetry species 1: a  
 
          Orbital            1         2         3         4         5         6         7         8         9        10    
          Energy          -20.8568  -20.7408  -20.7407   -1.6995   -1.4630   -1.0567   -0.8368   -0.7813   -0.7485   -0.6188
          Occ. No.          2.0000    2.0000    2.0000    2.0000    2.0000    2.0000    2.0000    2.0000    2.0000    2.0000
 
        1 O1     1s         0.0025   -0.4205    0.9059   -0.0126    0.0126    0.0148   -0.0022   -0.0258   -0.0000    0.0038
        2 O1     2s         0.0007    0.0038   -0.0077    0.3487   -0.5581    0.6569   -0.0472   -0.4495   -0.0000    0.0453
        3 O1     3s         0.0003    0.0028   -0.0053   -0.0096    0.0217    0.0240   -0.0027   -0.0557    0.0000    0.0075
        4 O1     4s         0.0000    0.0006   -0.0011   -0.0003    0.0040    0.0042   -0.0006   -0.0117    0.0000    0.0016
        5 O1     2px       -0.0001   -0.0002    0.0003   -0.0072    0.0111    0.0237    0.3440   -0.0943    0.0000   -0.6945
        6 O1     3px       -0.0002   -0.0002    0.0002    0.0037   -0.0018   -0.0043   -0.0256    0.0072    0.0000    0.0106
        7 O1     4px       -0.0001    0.0000   -0.0001    0.0009    0.0004    0.0001   -0.0003    0.0002    0.0000    0.0054
        8 O1     2py       -0.0005   -0.0015    0.0039   -0.1147    0.0872    0.1798   -0.0604   -0.3975   -0.0000    0.0901
        9 O1     3py       -0.0002   -0.0015    0.0037    0.0117   -0.0202   -0.0288    0.0050    0.0483    0.0000   -0.0028
       10 O1     4py        0.0001    0.0010   -0.0022    0.0010   -0.0032    0.0006    0.0011    0.0041    0.0000   -0.0009
       11 O1     2pz       -0.0000    0.0000    0.0000   -0.0000    0.0000    0.0000   -0.0000   -0.0000    0.4290    0.0000
       12 O1     3pz       -0.0000   -0.0000   -0.0000    0.0000    0.0000   -0.0000   -0.0000    0.0000   -0.0146    0.0000
       13 O1     4pz        0.0000   -0.0000   -0.0000   -0.0000   -0.0000   -0.0000   -0.0000    0.0000   -0.0067   -0.0000
       14 O1     3d2-      -0.0000    0.0001   -0.0002    0.0021   -0.0022   -0.0025   -0.0211    0.0047   -0.0000    0.0131
       15 O1     4d2-      -0.0000    0.0001   -0.0001    0.0000   -0.0002   -0.0000   -0.0017    0.0001   -0.0000    0.0008
       16 O1     3d1-       0.0000   -0.0000    0.0000    0.0000    0.0000   -0.0000    0.0000    0.0000   -0.0321   -0.0000
       17 O1     4d1-       0.0000   -0.0000    0.0000    0.0000    0.0000   -0.0000   -0.0000    0.0000   -0.0057   -0.0000
       18 O1     3d0       -0.0001   -0.0003    0.0008   -0.0102    0.0081    0.0075   -0.0024   -0.0154   -0.0000    0.0027
       19 O1     4d0       -0.0000   -0.0002    0.0006   -0.0010    0.0006    0.0005   -0.0004   -0.0010    0.0000    0.0005
       20 O1     3d1+       0.0000   -0.0000   -0.0000   -0.0000    0.0000    0.0000   -0.0000   -0.0000   -0.0019    0.0000
       21 O1     4d1+      -0.0000    0.0000    0.0000   -0.0000    0.0000    0.0000    0.0000    0.0000   -0.0003    0.0000
       22 O1     3d2+      -0.0002   -0.0007    0.0018   -0.0203    0.0149    0.0169   -0.0062   -0.0291   -0.0000    0.0059
       23 O1     4d2+      -0.0001   -0.0003    0.0009   -0.0029    0.0017    0.0017   -0.0006   -0.0021   -0.0000    0.0007
       24 O1     4f3-       0.0001    0.0001   -0.0003    0.0059   -0.0051   -0.0033    0.0018    0.0068    0.0000   -0.0018
       25 O1     4f2-       0.0000   -0.0000   -0.0000   -0.0000    0.0000    0.0000   -0.0000   -0.0000    0.0006   -0.0000
       26 O1     4f1-       0.0000    0.0001   -0.0002    0.0034   -0.0029   -0.0022    0.0006    0.0042    0.0000   -0.0006
       27 O1     4f0        0.0000   -0.0000    0.0000   -0.0000   -0.0000    0.0000   -0.0000    0.0000   -0.0037    0.0000
       28 O1     4f1+      -0.0000    0.0000   -0.0000    0.0002   -0.0001   -0.0002   -0.0006    0.0002    0.0000   -0.0005
       29 O1     4f2+       0.0000    0.0000    0.0000   -0.0000    0.0000    0.0000    0.0000    0.0000   -0.0071   -0.0000
       30 O1     4f3+      -0.0000    0.0000   -0.0001    0.0011   -0.0009   -0.0009   -0.0073    0.0018   -0.0000    0.0061
       31 O2     1s         0.9998   -0.0005   -0.0015   -0.0286    0.0000   -0.0148   -0.0015    0.0000   -0.0000    0.0000
       32 O2     2s        -0.0012    0.0043    0.0117    0.6231   -0.0000   -0.6290   -0.0145    0.0000    0.0000    0.0000
       33 O2     3s        -0.0014    0.0024    0.0066   -0.0667    0.0000   -0.0242   -0.0017    0.0000   -0.0000    0.0000
       34 O2     4s        -0.0001    0.0004    0.0010   -0.0126    0.0000   -0.0042   -0.0012    0.0000   -0.0000    0.0000
       35 O2     2px        0.0003    0.0002    0.0007    0.0215   -0.0000    0.0457    0.7368   -0.0000    0.0000   -0.0000
       36 O2     3px       -0.0001    0.0001    0.0004   -0.0096    0.0000   -0.0053   -0.0779   -0.0000   -0.0000   -0.0000
       37 O2     4px        0.0006   -0.0000   -0.0001   -0.0021    0.0000    0.0009   -0.0108   -0.0000   -0.0000    0.0000
       38 O2     2py       -0.0000   -0.0072    0.0026   -0.0000   -0.3382    0.0000   -0.0000    0.5708    0.0000   -0.0695
       39 O2     3py       -0.0000   -0.0050    0.0018    0.0000    0.0638   -0.0000    0.0000   -0.0491   -0.0000   -0.0019
       40 O2     4py        0.0000    0.0012   -0.0005    0.0000    0.0002   -0.0000    0.0000   -0.0126   -0.0000    0.0010
       41 O2     2pz        0.0000    0.0000    0.0000   -0.0000   -0.0000    0.0000   -0.0000   -0.0000    0.6204   -0.0000
       42 O2     3pz        0.0000    0.0000    0.0000   -0.0000   -0.0000   -0.0000    0.0000    0.0000   -0.0389    0.0000
       43 O2     4pz       -0.0000    0.0000    0.0000    0.0000    0.0000   -0.0000    0.0000    0.0000   -0.0193    0.0000
       44 O2     3d2-      -0.0000   -0.0003    0.0001   -0.0000   -0.0095    0.0000   -0.0000    0.0066    0.0000   -0.0402
       45 O2     4d2-      -0.0000   -0.0002    0.0001   -0.0000   -0.0011    0.0000   -0.0000    0.0007    0.0000   -0.0062
       46 O2     3d1-       0.0000   -0.0000    0.0000    0.0000    0.0000   -0.0000   -0.0000   -0.0000   -0.0000    0.0000
       47 O2     4d1-       0.0000   -0.0000    0.0000    0.0000   -0.0000   -0.0000   -0.0000    0.0000   -0.0000    0.0000
       48 O2     3d0       -0.0002   -0.0004   -0.0011   -0.0146    0.0000    0.0011   -0.0051   -0.0000   -0.0000    0.0000
       49 O2     4d0        0.0002   -0.0002   -0.0006    0.0004    0.0000    0.0011   -0.0006   -0.0000   -0.0000    0.0000
       50 O2     3d1+      -0.0000    0.0000   -0.0000    0.0000   -0.0000    0.0000   -0.0000   -0.0000    0.0079   -0.0000
       51 O2     4d1+      -0.0000   -0.0000    0.0000    0.0000    0.0000    0.0000   -0.0000    0.0000    0.0013   -0.0000
       52 O2     3d2+       0.0004   -0.0007   -0.0019   -0.0258    0.0000   -0.0041    0.0041    0.0000    0.0000    0.0000
       53 O2     4d2+       0.0001   -0.0003   -0.0010   -0.0010    0.0000    0.0002   -0.0000    0.0000    0.0000    0.0000
       54 O2     4f3-       0.0000    0.0002   -0.0001    0.0000    0.0108   -0.0000   -0.0000   -0.0097   -0.0000   -0.0016
       55 O2     4f2-       0.0000    0.0000    0.0000    0.0000   -0.0000   -0.0000    0.0000    0.0000   -0.0000   -0.0000
       56 O2     4f1-       0.0000    0.0001   -0.0000    0.0000    0.0053   -0.0000    0.0000   -0.0047   -0.0000    0.0005
       57 O2     4f0       -0.0000    0.0000   -0.0000    0.0000   -0.0000   -0.0000    0.0000    0.0000   -0.0051    0.0000
       58 O2     4f1+       0.0000   -0.0000   -0.0000   -0.0005    0.0000    0.0002    0.0006   -0.0000    0.0000   -0.0000
       59 O2     4f2+      -0.0000    0.0000   -0.0000    0.0000   -0.0000   -0.0000    0.0000    0.0000   -0.0120    0.0000
       60 O2     4f3+       0.0000   -0.0000   -0.0001   -0.0029    0.0000   -0.0004   -0.0126   -0.0000   -0.0000    0.0000
       61 O3     1s         0.0025    0.9059    0.4205   -0.0126   -0.0126    0.0148   -0.0022    0.0258    0.0000   -0.0038
       62 O3     2s         0.0007   -0.0079   -0.0035    0.3487    0.5581    0.6570   -0.0472    0.4495    0.0000   -0.0453
       63 O3     3s         0.0003   -0.0055   -0.0023   -0.0096   -0.0217    0.0240   -0.0027    0.0557    0.0000   -0.0075
       64 O3     4s         0.0000   -0.0012   -0.0004   -0.0003   -0.0040    0.0042   -0.0006    0.0117    0.0000   -0.0016
       65 O3     2px       -0.0001    0.0003    0.0001   -0.0072   -0.0111    0.0237    0.3441    0.0943    0.0000    0.6945
       66 O3     3px       -0.0002    0.0003    0.0001    0.0037    0.0018   -0.0043   -0.0256   -0.0072   -0.0000   -0.0106
       67 O3     4px       -0.0001   -0.0001   -0.0001    0.0009   -0.0004    0.0001   -0.0003   -0.0002   -0.0000   -0.0054
       68 O3     2py        0.0005   -0.0036   -0.0020    0.1147    0.0872   -0.1798    0.0604   -0.3975   -0.0000    0.0901
       69 O3     3py        0.0002   -0.0035   -0.0019   -0.0117   -0.0202    0.0288   -0.0050    0.0483    0.0000   -0.0028
       70 O3     4py       -0.0001    0.0022    0.0010   -0.0010   -0.0032   -0.0006   -0.0011    0.0041    0.0000   -0.0009
       71 O3     2pz        0.0000   -0.0000   -0.0000    0.0000    0.0000   -0.0000   -0.0000   -0.0000    0.4290   -0.0000
       72 O3     3pz        0.0000   -0.0000   -0.0000    0.0000    0.0000    0.0000    0.0000    0.0000   -0.0146   -0.0000
       73 O3     4pz        0.0000   -0.0000   -0.0000   -0.0000    0.0000    0.0000   -0.0000   -0.0000   -0.0067    0.0000
       74 O3     3d2-       0.0000    0.0002    0.0001   -0.0021   -0.0022    0.0025    0.0211    0.0047    0.0000    0.0131
       75 O3     4d2-       0.0000    0.0001    0.0001   -0.0000   -0.0002    0.0000    0.0017    0.0001    0.0000    0.0008
       76 O3     3d1-       0.0000    0.0000    0.0000    0.0000    0.0000    0.0000   -0.0000   -0.0000    0.0321   -0.0000
       77 O3     4d1-       0.0000    0.0000   -0.0000    0.0000    0.0000    0.0000   -0.0000   -0.0000    0.0057   -0.0000
       78 O3     3d0       -0.0001    0.0008    0.0004   -0.0102   -0.0081    0.0075   -0.0024    0.0154    0.0000   -0.0027
       79 O3     4d0       -0.0000    0.0005    0.0003   -0.0010   -0.0006    0.0005   -0.0004    0.0010    0.0000   -0.0005
       80 O3     3d1+       0.0000   -0.0000   -0.0000    0.0000    0.0000   -0.0000    0.0000   -0.0000   -0.0019    0.0000
       81 O3     4d1+       0.0000    0.0000    0.0000    0.0000    0.0000    0.0000    0.0000    0.0000   -0.0003    0.0000
       82 O3     3d2+      -0.0002    0.0017    0.0009   -0.0203   -0.0149    0.0169   -0.0062    0.0291    0.0000   -0.0059
       83 O3     4d2+      -0.0001    0.0008    0.0005   -0.0029   -0.0017    0.0017   -0.0006    0.0021   -0.0000   -0.0007
       84 O3     4f3-      -0.0001    0.0003    0.0001   -0.0059   -0.0051    0.0033   -0.0018    0.0068    0.0000   -0.0018
       85 O3     4f2-      -0.0000   -0.0000   -0.0000    0.0000    0.0000   -0.0000   -0.0000   -0.0000   -0.0006   -0.0000
       86 O3     4f1-      -0.0000    0.0002    0.0001   -0.0034   -0.0029    0.0022   -0.0006    0.0042   -0.0000   -0.0006
       87 O3     4f0       -0.0000   -0.0000   -0.0000   -0.0000    0.0000   -0.0000    0.0000    0.0000   -0.0037    0.0000
       88 O3     4f1+      -0.0000   -0.0000   -0.0000    0.0002    0.0001   -0.0002   -0.0006   -0.0002    0.0000    0.0005
       89 O3     4f2+      -0.0000   -0.0000   -0.0000   -0.0000    0.0000    0.0000    0.0000    0.0000   -0.0071    0.0000
       90 O3     4f3+      -0.0000   -0.0001   -0.0000    0.0011    0.0009   -0.0009   -0.0073   -0.0018   -0.0000   -0.0061
 
          Orbital           11        12        13        14        15        16        17        18        19        20    
          Energy           -0.5151   -0.4696   -0.0220    0.1233    0.1668    0.2349    0.2351    0.2728    0.3661    0.3676
          Occ. No.          2.0000    2.0000    0.0000    0.0000    0.0000    0.0000    0.0000    0.0000    0.0000    0.0000
 
        1 O1     1s         0.0000    0.0001   -0.0000    0.0559   -0.2271   -0.0000   -0.0224    0.0984   -0.0050    0.0000
        2 O1     2s         0.0000   -0.0079   -0.0000    0.5314   -1.6502   -0.0000   -0.1516    0.6703   -0.0187    0.0000
        3 O1     3s        -0.0000    0.0041   -0.0000    0.1231   -0.9934   -0.0000   -0.1047    0.5808   -0.0049    0.0000
        4 O1     4s        -0.0000    0.0018    0.0000    0.0063   -0.2264   -0.0000   -0.0236    0.1488    0.0007    0.0000
        5 O1     2px       -0.0000    0.6673    0.0000    0.0210    0.0758   -0.0000   -0.0532   -0.0530   -0.1704    0.0000
        6 O1     3px        0.0000    0.0429    0.0000    0.0057    0.0855    0.0000    0.4032    0.0314   -0.8683    0.0000
        7 O1     4px        0.0000    0.0009    0.0000    0.0035    0.0130    0.0000    0.2039    0.0301   -0.3431    0.0000
        8 O1     2py       -0.0000    0.0460    0.0000   -0.8994    0.6552    0.0000    0.0902   -0.4969   -0.0474   -0.0000
        9 O1     3py       -0.0000   -0.0041    0.0000   -0.3528    0.8123    0.0000    0.1313   -1.0496   -0.0330    0.0000
       10 O1     4py       -0.0000   -0.0017    0.0000   -0.0350    0.1029    0.0000    0.0151   -0.2381   -0.0059    0.0000
       11 O1     2pz       -0.6941   -0.0000    0.6615    0.0000   -0.0000   -0.1113    0.0000   -0.0000   -0.0000   -0.1495
       12 O1     3pz       -0.0237   -0.0000    0.1737    0.0000   -0.0000    0.3818   -0.0000    0.0000   -0.0000   -0.8718
       13 O1     4pz        0.0070    0.0000    0.0285    0.0000   -0.0000    0.2062   -0.0000    0.0000   -0.0000   -0.3497
       14 O1     3d2-       0.0000    0.0047   -0.0000    0.0083   -0.0134    0.0000    0.0018    0.0081    0.0162   -0.0000
       15 O1     4d2-       0.0000    0.0004    0.0000    0.0034   -0.0094   -0.0000   -0.0037    0.0054    0.0172   -0.0000
       16 O1     3d1-       0.0253   -0.0000    0.0155    0.0000   -0.0000    0.0073   -0.0000   -0.0000    0.0000    0.0127
       17 O1     4d1-       0.0056   -0.0000    0.0021    0.0000    0.0000   -0.0011    0.0000   -0.0000    0.0000    0.0158
       18 O1     3d0        0.0000    0.0015   -0.0000   -0.0107    0.0522    0.0000    0.0111   -0.0579   -0.0027   -0.0000
       19 O1     4d0       -0.0000    0.0001   -0.0000   -0.0066    0.0327    0.0000    0.0071   -0.0410   -0.0030   -0.0000
       20 O1     3d1+       0.0012    0.0000    0.0014   -0.0000    0.0000    0.0011   -0.0000   -0.0000    0.0000    0.0033
       21 O1     4d1+       0.0002   -0.0000    0.0001    0.0000   -0.0000    0.0003   -0.0000    0.0000    0.0000    0.0026
       22 O1     3d2+       0.0000    0.0039   -0.0000   -0.0163    0.0872    0.0000    0.0213   -0.1052    0.0017    0.0000
       23 O1     4d2+       0.0000    0.0001    0.0000   -0.0101    0.0539    0.0000    0.0131   -0.0745   -0.0003    0.0000
       24 O1     4f3-       0.0000   -0.0010   -0.0000    0.0050   -0.0063   -0.0000   -0.0012    0.0129   -0.0007   -0.0000
       25 O1     4f2-      -0.0005    0.0000   -0.0002   -0.0000    0.0000    0.0003   -0.0000   -0.0000    0.0000   -0.0017
       26 O1     4f1-       0.0000   -0.0005   -0.0000    0.0020   -0.0048   -0.0000   -0.0014    0.0108    0.0015   -0.0000
       27 O1     4f0        0.0020   -0.0000    0.0015   -0.0000   -0.0000   -0.0018    0.0000    0.0000    0.0000    0.0064
       28 O1     4f1+       0.0000    0.0014    0.0000    0.0003   -0.0001   -0.0000   -0.0011    0.0006    0.0029   -0.0000
       29 O1     4f2+       0.0059   -0.0000   -0.0003   -0.0000   -0.0000   -0.0017    0.0000   -0.0000    0.0000    0.0073
       30 O1     4f3+       0.0000   -0.0012    0.0000    0.0012   -0.0006   -0.0000   -0.0031    0.0024    0.0095   -0.0000
       31 O2     1s        -0.0000    0.0100    0.0000   -0.1779    0.0000    0.0000    0.0552   -0.3177   -0.0000   -0.0000
       32 O2     2s        -0.0000    0.1171    0.0000   -1.5326    0.0000    0.0000    0.3613   -2.0101   -0.0000   -0.0000
       33 O2     3s        -0.0000    0.0272    0.0000   -0.6650    0.0000    0.0000    0.2273   -1.1885   -0.0000   -0.0000
       34 O2     4s        -0.0000    0.0065    0.0000   -0.1527    0.0000    0.0000    0.0466   -0.2230   -0.0000   -0.0000
       35 O2     2px       -0.0000   -0.7325   -0.0000   -0.1910    0.0000   -0.0000   -0.0821   -0.0602   -0.0000   -0.0000
       36 O2     3px        0.0000   -0.0451   -0.0000   -0.0544    0.0000    0.0000    0.2655   -0.0851   -0.0000    0.0000
       37 O2     4px        0.0000   -0.0032   -0.0000   -0.0006    0.0000    0.0000    0.1662    0.0070   -0.0000    0.0000
       38 O2     2py       -0.0000    0.0000    0.0000    0.0000    1.6054    0.0000    0.0000   -0.0000   -0.0151   -0.0000
       39 O2     3py        0.0000    0.0000    0.0000    0.0000    1.6748    0.0000    0.0000   -0.0000    0.0835   -0.0000
       40 O2     4py        0.0000    0.0000    0.0000    0.0000    0.1716    0.0000    0.0000   -0.0000    0.0436   -0.0000
       41 O2     2pz       -0.0000    0.0000   -0.9232   -0.0000    0.0000   -0.0547    0.0000   -0.0000    0.0000   -0.0000
       42 O2     3pz        0.0000   -0.0000   -0.2186   -0.0000   -0.0000    0.2791   -0.0000   -0.0000    0.0000   -0.0000
       43 O2     4pz        0.0000   -0.0000   -0.0216   -0.0000   -0.0000    0.1772   -0.0000    0.0000    0.0000   -0.0000
       44 O2     3d2-      -0.0000    0.0000    0.0000    0.0000    0.0317   -0.0000    0.0000   -0.0000    0.1082   -0.0000
       45 O2     4d2-      -0.0000    0.0000    0.0000    0.0000    0.0195   -0.0000    0.0000   -0.0000    0.0689   -0.0000
       46 O2     3d1-      -0.0625    0.0000    0.0000    0.0000   -0.0000    0.0000   -0.0000   -0.0000    0.0000    0.1204
       47 O2     4d1-      -0.0145    0.0000    0.0000   -0.0000   -0.0000    0.0000   -0.0000   -0.0000    0.0000    0.0731
       48 O2     3d0       -0.0000    0.0078    0.0000   -0.0216    0.0000   -0.0000   -0.0204    0.1144    0.0000   -0.0000
       49 O2     4d0       -0.0000    0.0008    0.0000    0.0031    0.0000   -0.0000   -0.0107    0.0505    0.0000   -0.0000
       50 O2     3d1+      -0.0000    0.0000   -0.0027    0.0000   -0.0000   -0.0048    0.0000    0.0000    0.0000    0.0000
       51 O2     4d1+      -0.0000    0.0000   -0.0005    0.0000   -0.0000   -0.0017    0.0000    0.0000    0.0000   -0.0000
       52 O2     3d2+      -0.0000    0.0114    0.0000   -0.0423    0.0000   -0.0000   -0.0423    0.1824    0.0000   -0.0000
       53 O2     4d2+      -0.0000    0.0019    0.0000    0.0046    0.0000   -0.0000   -0.0203    0.0759    0.0000    0.0000
       54 O2     4f3-       0.0000    0.0000   -0.0000   -0.0000   -0.0153   -0.0000   -0.0000    0.0000   -0.0006    0.0000
       55 O2     4f2-      -0.0019    0.0000    0.0000   -0.0000   -0.0000    0.0000    0.0000    0.0000    0.0000    0.0015
       56 O2     4f1-       0.0000    0.0000    0.0000   -0.0000   -0.0115   -0.0000   -0.0000    0.0000   -0.0022    0.0000
       57 O2     4f0        0.0000    0.0000   -0.0021    0.0000   -0.0000   -0.0017    0.0000    0.0000    0.0000    0.0000
       58 O2     4f1+      -0.0000   -0.0026   -0.0000   -0.0007    0.0000   -0.0000   -0.0011    0.0010    0.0000   -0.0000
       59 O2     4f2+       0.0000   -0.0000    0.0025    0.0000   -0.0000   -0.0021    0.0000    0.0000   -0.0000    0.0000
       60 O2     4f3+      -0.0000    0.0009    0.0000   -0.0005    0.0000   -0.0000   -0.0036    0.0025    0.0000   -0.0000
       61 O3     1s         0.0000    0.0001    0.0000    0.0559    0.2271   -0.0000   -0.0224    0.0984    0.0050   -0.0000
       62 O3     2s         0.0000   -0.0079    0.0000    0.5315    1.6502   -0.0000   -0.1516    0.6703    0.0188   -0.0000
       63 O3     3s         0.0000    0.0041    0.0000    0.1231    0.9934   -0.0000   -0.1047    0.5808    0.0049   -0.0000
       64 O3     4s        -0.0000    0.0018    0.0000    0.0063    0.2264   -0.0000   -0.0236    0.1488   -0.0007    0.0000
       65 O3     2px        0.0000    0.6672    0.0000    0.0210   -0.0758   -0.0000   -0.0532   -0.0530    0.1704   -0.0000
       66 O3     3px        0.0000    0.0429    0.0000    0.0057   -0.0855    0.0000    0.4033    0.0314    0.8683   -0.0000
       67 O3     4px        0.0000    0.0009    0.0000    0.0035   -0.0130    0.0000    0.2039    0.0301    0.3430   -0.0000
       68 O3     2py        0.0000   -0.0460   -0.0000    0.8994    0.6552   -0.0000   -0.0902    0.4969   -0.0474    0.0000
       69 O3     3py       -0.0000    0.0041    0.0000    0.3528    0.8124   -0.0000   -0.1313    1.0496   -0.0330    0.0000
       70 O3     4py       -0.0000    0.0017    0.0000    0.0351    0.1029   -0.0000   -0.0151    0.2381   -0.0059    0.0000
       71 O3     2pz        0.6941   -0.0000    0.6615   -0.0000   -0.0000   -0.1112    0.0000    0.0000    0.0000    0.1495
       72 O3     3pz        0.0237   -0.0000    0.1737   -0.0000   -0.0000    0.3818   -0.0000    0.0000    0.0000    0.8718
       73 O3     4pz       -0.0070    0.0000    0.0285   -0.0000   -0.0000    0.2063   -0.0000    0.0000    0.0000    0.3497
       74 O3     3d2-       0.0000   -0.0047    0.0000   -0.0083   -0.0134   -0.0000   -0.0018   -0.0081    0.0162   -0.0000
       75 O3     4d2-       0.0000   -0.0004    0.0000   -0.0034   -0.0094    0.0000    0.0037   -0.0054    0.0172   -0.0000
       76 O3     3d1-       0.0253    0.0000   -0.0155   -0.0000    0.0000   -0.0073    0.0000    0.0000    0.0000    0.0127
       77 O3     4d1-       0.0056    0.0000   -0.0021   -0.0000    0.0000    0.0011   -0.0000    0.0000    0.0000    0.0158
       78 O3     3d0       -0.0000    0.0015    0.0000   -0.0107   -0.0522    0.0000    0.0111   -0.0579    0.0027   -0.0000
       79 O3     4d0       -0.0000    0.0001    0.0000   -0.0066   -0.0327    0.0000    0.0071   -0.0410    0.0030   -0.0000
       80 O3     3d1+      -0.0012    0.0000    0.0014    0.0000   -0.0000    0.0011   -0.0000    0.0000   -0.0000   -0.0033
       81 O3     4d1+      -0.0002   -0.0000    0.0001   -0.0000   -0.0000    0.0003   -0.0000    0.0000   -0.0000   -0.0026
       82 O3     3d2+      -0.0000    0.0039   -0.0000   -0.0163   -0.0872    0.0000    0.0213   -0.1052   -0.0017    0.0000
       83 O3     4d2+       0.0000    0.0001   -0.0000   -0.0101   -0.0539    0.0000    0.0131   -0.0745    0.0003   -0.0000
       84 O3     4f3-       0.0000    0.0010   -0.0000   -0.0050   -0.0063    0.0000    0.0012   -0.0129   -0.0007   -0.0000
       85 O3     4f2-      -0.0005   -0.0000    0.0002    0.0000   -0.0000   -0.0003    0.0000   -0.0000   -0.0000   -0.0017
       86 O3     4f1-       0.0000    0.0005   -0.0000   -0.0020   -0.0048    0.0000    0.0014   -0.0108    0.0015   -0.0000
       87 O3     4f0       -0.0020   -0.0000    0.0015    0.0000   -0.0000   -0.0018    0.0000   -0.0000   -0.0000   -0.0064
       88 O3     4f1+       0.0000    0.0014    0.0000    0.0003    0.0001   -0.0000   -0.0011    0.0006   -0.0029   -0.0000
       89 O3     4f2+      -0.0059    0.0000   -0.0003    0.0000   -0.0000   -0.0017    0.0000   -0.0000   -0.0000   -0.0073
       90 O3     4f3+      -0.0000   -0.0012   -0.0000    0.0012    0.0006   -0.0000   -0.0031    0.0024   -0.0095    0.0000
 
          Orbital           21    
          Energy            0.4609
          Occ. No.          0.0000
 
        1 O1     1s        -0.0700
        2 O1     2s        -0.4119
        3 O1     3s         0.1449
        4 O1     4s         0.1306
        5 O1     2px        0.0388
        6 O1     3px        0.0745
        7 O1     4px        0.0128
        8 O1     2py        0.0297
        9 O1     3py        0.4487
       10 O1     4py        0.0737
       11 O1     2pz       -0.0000
       12 O1     3pz       -0.0000
       13 O1     4pz       -0.0000
       14 O1     3d2-      -0.0229
       15 O1     4d2-      -0.0139
       16 O1     3d1-      -0.0000
       17 O1     4d1-       0.0000
       18 O1     3d0        0.0716
       19 O1     4d0        0.0412
       20 O1     3d1+      -0.0000
       21 O1     4d1+       0.0000
       22 O1     3d2+       0.1085
       23 O1     4d2+       0.0604
       24 O1     4f3-      -0.0030
       25 O1     4f2-      -0.0000
       26 O1     4f1-      -0.0036
       27 O1     4f0        0.0000
       28 O1     4f1+      -0.0004
       29 O1     4f2+       0.0000
       30 O1     4f3+      -0.0013
       31 O2     1s         0.0971
       32 O2     2s         0.6093
       33 O2     3s         0.9887
       34 O2     4s         0.3012
       35 O2     2px       -0.0362
       36 O2     3px       -0.0864
       37 O2     4px       -0.0389
       38 O2     2py       -0.0000
       39 O2     3py       -0.0001
       40 O2     4py       -0.0000
       41 O2     2pz        0.0000
       42 O2     3pz        0.0000
       43 O2     4pz        0.0000
       44 O2     3d2-      -0.0000
       45 O2     4d2-      -0.0000
       46 O2     3d1-      -0.0000
       47 O2     4d1-      -0.0000
       48 O2     3d0       -0.0366
       49 O2     4d0       -0.0146
       50 O2     3d1+       0.0000
       51 O2     4d1+       0.0000
       52 O2     3d2+      -0.0902
       53 O2     4d2+      -0.0436
       54 O2     4f3-       0.0000
       55 O2     4f2-      -0.0000
       56 O2     4f1-       0.0000
       57 O2     4f0       -0.0000
       58 O2     4f1+      -0.0007
       59 O2     4f2+      -0.0000
       60 O2     4f3+      -0.0028
       61 O3     1s        -0.0700
       62 O3     2s        -0.4120
       63 O3     3s         0.1448
       64 O3     4s         0.1306
       65 O3     2px        0.0388
       66 O3     3px        0.0745
       67 O3     4px        0.0128
       68 O3     2py       -0.0296
       69 O3     3py       -0.4486
       70 O3     4py       -0.0737
       71 O3     2pz       -0.0000
       72 O3     3pz       -0.0000
       73 O3     4pz       -0.0000
       74 O3     3d2-       0.0229
       75 O3     4d2-       0.0139
       76 O3     3d1-      -0.0000
       77 O3     4d1-      -0.0000
       78 O3     3d0        0.0716
       79 O3     4d0        0.0412
       80 O3     3d1+       0.0000
       81 O3     4d1+       0.0000
       82 O3     3d2+       0.1085
       83 O3     4d2+       0.0604
       84 O3     4f3-       0.0030
       85 O3     4f2-       0.0000
       86 O3     4f1-       0.0036
       87 O3     4f0        0.0000
       88 O3     4f1+      -0.0004
       89 O3     4f2+       0.0000
       90 O3     4f3+      -0.0013
--
 
 
++    Molecular charges:
      ------------------
 
      Mulliken charges per centre and basis function type
      ---------------------------------------------------
 
                O1      O2      O3    
      1s       1.9975  1.9996  1.9975
      2s       1.9619  1.5936  1.9619
      2px      2.0077  1.9514  2.0077
      2pz      1.4473  1.0138  1.4473
      2py      0.7111  1.0592  0.7111
      3s      -0.0100 -0.0400 -0.0100
      3px     -0.0174 -0.0474 -0.0174
      3pz     -0.0065 -0.0146 -0.0065
      3py     -0.0034  0.0051 -0.0034
      4s       0.0029 -0.0018  0.0029
      3d2+     0.0217  0.0169  0.0217
      3d1+     0.0001  0.0004  0.0001
      3d0      0.0060  0.0041  0.0060
      3d1-     0.0144  0.0554  0.0144
      3d2-     0.0113  0.0330  0.0113
      4px      0.0008  0.0008  0.0008
      4pz      0.0011  0.0020  0.0011
      4py      0.0019  0.0058  0.0019
      4d2+     0.0016  0.0008  0.0016
      4d1+     0.0000  0.0001  0.0000
      4d0      0.0003 -0.0005  0.0003
      4d1-     0.0023  0.0140  0.0023
      4d2-     0.0010  0.0056  0.0010
      4f3+     0.0025  0.0043  0.0025
      4f2+     0.0020  0.0045  0.0020
      4f1+     0.0002  0.0004  0.0002
      4f0      0.0008  0.0015  0.0008
      4f1-     0.0013  0.0013  0.0013
      4f2-     0.0000  0.0002  0.0000
      4f3-     0.0030  0.0040  0.0030
      Total    8.1634  7.6733  8.1634
 
      N-E     -0.1634  0.3267 -0.1634
 
      Total electronic charge=   24.000000
 
      Total            charge=   -0.000000
--
 
 
  Input file to MOLDEN was generated!
 
 
++    Static properties:
      ------------------
 
 
      LoProp Charges per center
 

                   O1       O2       O3    
      Nuclear      8.0000   8.0000   8.0000
      Electronic  -8.1705  -7.6590  -8.1705
 
      Total       -0.1705   0.3410  -0.1705
--
 
 
++    Natural Bond Order analysis
      ---------------------------
      Based on LoProp computed density
      -------------------------------------------------------------------------------------
      Atom A       Atom B       Bond Order | Atom A       Atom B       Bond Order
        O1           O2             1.995  |   O2           O3             1.995
      -------------------------------------------------------------------------------------
      NBO located     15.999 core electrons.
      NBO located      7.979 electrons involved in    2 bonds.
      The remaining    0.021 electrons are to be considered as diffuse
--
 
 
++    Molecular properties:
      ---------------------
 
      Charge (e):
                      =   -0.0000
      Dipole Moment (Debye):
      Origin of the operator (Ang)=    0.0000    0.0000    0.0000
                   X= -5.6409E-03               Y= -3.1345E-06               Z= -1.2798E-13           Total=  5.6409E-03
      Quadrupole Moment (Debye*Ang):
      Origin of the operator (Ang)=    0.0650    0.0000    0.0000
                  XX= -1.6087E+01              XY= -4.3222E-08              XZ=  1.3178E-13              YY= -1.6796E+01
                  YZ= -3.5939E-13              ZZ= -1.4880E+01
      In traceless form (Debye*Ang)
                  XX= -2.4930E-01              XY= -6.4834E-08              XZ=  1.9767E-13              YY= -1.3122E+00
                  YZ= -5.3909E-13              ZZ=  1.5615E+00
--
 
 
  Input file to MOLDEN was generated!
 
 ###############################################################################
 ###############################################################################
 ###                                                                         ###
 ###                                                                         ###
 ###    RunFile label nBas                                                   ###
 ###    was used       78 times                                              ###
 ###                                                                         ###
 ###                                                                         ###
 ###############################################################################
 ###############################################################################
--- Stop Module: scf at Wed Apr 30 09:33:33 2025 /rc=_RC_ALL_IS_WELL_ ---
*** files: ozone_171.25.LprOrb ozone_171.25.LoProp.molden ozone_171.25.scf.molden ozone_171.25.ScfOrb ozone_171.25.scf.h5 xmldump
    saved to directory /lustre/isaac/scratch/gjones39/ANO-RCC-VTZP/ozone_171.25
--- Module scf spent 12 seconds ---

>>> COPY /lustre/isaac/scratch/gjones39/ANO-RCC-VTZP/ozone_171.25/3193835/ozone_171.25.scf.h5 /lustre/isaac/scratch/gjones39/ANO-RCC-VTZP/ozone_171.25/

*** symbolic link created: INPORB -> ozone_171.25.ScfOrb
--- Start Module: rasscf at Wed Apr 30 09:33:33 2025 ---
 
()()()()()()()()()()()()()()()()()()()()()()()()()()()()()()()()()()()()()()()()()()()()()()()()()()

                                              &RASSCF

                                   only a single process is used
                       available to each process: 62 GB of memory, 1 thread?
()()()()()()()()()()()()()()()()()()()()()()()()()()()()()()()()()()()()()()()()()()()()()()()()()()
 
 
      Header of the ONEINT file:
      --------------------------
      
      Integrals generated by seward 4.2.0  , Wed Apr 30 09:33:04 2025
 
 
      OrdInt status: non-squared
 
 
      Cartesian coordinates in Angstrom:
      -----------------------------------------------------
      No.  Label        X            Y            Z        
      -----------------------------------------------------
       1   O1         0.09749100   1.27427600   0.00000000
       2   O2         0.00000000   0.00000000   0.00000000
       3   O3         0.09749100  -1.27427600   0.00000000
      -----------------------------------------------------
      Nuclear repulsion energy =   66.28939371
 
++    Wave function specifications:
      -----------------------------
 
      Number of closed shell electrons          12
      Number of electrons in active shells      12
      Max number of holes in RAS1 space          0
      Max nr of electrons in RAS3 space          0
      Number of inactive orbitals                6
      Number of active orbitals                  9
      Number of secondary orbitals              75
      Spin quantum number                      0.0
      State symmetry                             1
--
 
++    Orbital specifications:
      -----------------------
 
      Symmetry species                           1
                                                 a
      Frozen orbitals                            0
      Inactive orbitals                          6
      Active orbitals                            9
      RAS1 orbitals                              0
      RAS2 orbitals                              9
      RAS3 orbitals                              0
      Secondary orbitals                        75
      Deleted orbitals                           0
      Number of basis functions                 90
--
 
++    CI expansion specifications:
      ----------------------------
 
      Number of CSFs                          2520
      Number of determinants                  3570
      Number of root(s) required                 3
      Root chosen for geometry opt.              3
      CI roots used                              1     2     3
      weights                                0.333 0.333 0.333
      highest root included in the CI            3
      max. size of the explicit Hamiltonian    500
--
 
++    Optimization specifications:
      ----------------------------
 
      RASSCF algorithm: Conventional
      Maximum number of macro iterations       200
      Maximum number of SX iterations          100
      Threshold for RASSCF energy            0.100E-07
      Threshold for max MO rotation          0.100E+00
      Threshold for max BLB element          0.100E-03
      Level shift parameter                  0.500E+00
      Make Quasi-Newton update
--
 
      The MO-coefficients are taken from the file:
      /lustre/isaac/scratch/gjones39/ANO-RCC-VTZP/ozone_171.00/ozone_171.00.RasOrb                                                    
      Title: RASSCF average (pseudo-natural) orbitals                                      
 
      Total molecular charge    0.00
 
      ************************************************************************************************************************
      *                                                                                                                      *
      *                                            Wave function control section                                             *
      *                                                                                                                      *
      ************************************************************************************************************************
 
 
                                         RASSCF iterations: Energy and convergence statistics
                                         ----------------------------------------------------
 
      Iter CI   SX   CI       RASSCF       Energy    max ROT     max BLB   max BLB  Level Ln srch  Step   QN   Walltime
          iter iter root      energy       change     param      element    value   shift minimum  type update hh:mm:ss
 Nr of preliminary CI iterations:   6
        1   1    6    0  -224.57090029    0.00E+00  -0.66E-03    4  14 1  0.12E-02*  0.02   0.00    SX    NO    0:00:01
        2   1    6    0  -224.57090411   -0.38E-05* -0.26E-03    6  14 1 -0.27E-03*  0.02   0.00    SX    NO    0:00:00
        3   1    5    0  -224.57090433   -0.22E-06* -0.19E-03    6  14 1 -0.13E-03*  0.02   0.00    SX    NO    0:00:01
        4   8    6    0  -224.57090694   -0.26E-05* -0.54E-03    4  14 1  0.34E-03*  0.02   0.00    SX    NO    0:00:01
        5   4    5    0  -224.57090721   -0.27E-06* -0.46E-03    4  14 1  0.16E-03*  0.02   1.85    LS   YES    0:00:01
        6   6    5    0  -224.57090727   -0.57E-07*  0.37E-03    9  48 1  0.71E-04   0.02   0.86    QN   YES    0:00:01
        7   4    5    0  -224.57090733   -0.57E-07* -0.80E-03    6  50 1  0.51E-04   0.02   1.65    QN   YES    0:00:01
        8   5    5    0  -224.57090736   -0.29E-07* -0.17E-04    6  50 1 -0.68E-04   0.02   0.80    QN   YES    0:00:01
        9   1    4    0  -224.57090736   -0.62E-08   0.11E-03    6  24 1  0.91E-05   0.02   1.43    QN   YES    0:00:01
      Convergence after  9 iterations
 
  Dmat in MO in SXCTL bf call to SXHAM                                                                                    
  mat. size =     9x    9
 
        1.9683561449518379
       -0.0000000000004277      1.9373651776583412
        0.0000000306953300     -0.0000000000001714      1.9781544333093342
        0.0009048316310346      0.0000000000040156      0.0000003107010457      1.0912844213080870
       -0.0000000000005137     -0.0000030785669329     -0.0000000000000420     -0.0000000000100163      1.9018971012231685
       -0.0000000000000300      0.0000000367501779      0.0000000000005110     -0.0000000000001480      0.0000000686126759
        1.9134624331766585
        0.0000000175482632     -0.0000000000000348      0.0003794872027662     -0.0000001231663017     -0.0000000000005323
        0.0000000000013201      1.0979142739331085
        0.0024424504523301      0.0000000000053004      0.0000001659851895     -0.0027074520150516      0.0000000000061312
        0.0000000000005757      0.0000008340391873      0.0813115848498808
        0.0000000000037979      0.0002889167102175      0.0000000000002412      0.0000000000012184     -0.0023604920891231
       -0.0000001035132414      0.0000000000000797     -0.0000000000009028      0.0302544295895755
       10   2    4    0  -224.57090736   -0.68E-09   0.11E-03    6  14 1  0.56E-05   0.02   1.43    QN   YES    0:00:01
 
      ************************************************************************************************************************
                                                      Wave function printout:
                       occupation of active orbitals, and spin coupling of open shells (u,d: Spin up or down)
      ************************************************************************************************************************
 
      Note: transformation to natural orbitals
      has been made, which may change the order of the CSFs.
 
      printout of CI-coefficients larger than  0.05 for root  1
      energy=    -224.592656
      conf/sym  111111111     Coeff  Weight
             1  222222000  -0.90725 0.82310
             4  222220200   0.24255 0.05883
           205  2u222dud0   0.09862 0.00973
           207  2u222udd0   0.10750 0.01156
           351  222022200   0.14465 0.02092
           355  222022020   0.05249 0.00276
           551  220222200   0.09060 0.00821
           611  2ud222u0d   0.06784 0.00460
           652  u2d222ud0  -0.06830 0.00467
           705  202222020   0.06045 0.00365
           731  202222002   0.05421 0.00294
           764  ud22220ud  -0.05968 0.00356
           992  2uu222d0d   0.07065 0.00499
 
      printout of CI-coefficients larger than  0.05 for root  2
      energy=    -224.575035
      conf/sym  111111111     Coeff  Weight
             5  2222ud200  -0.24733 0.06117
            51  222u22d00   0.92756 0.86037
           206  2u22d2ud0  -0.06683 0.00447
           208  2u22u2dd0  -0.08154 0.00665
           897  2u2u2d2d0  -0.09407 0.00885
          1285  2udu2220d  -0.05173 0.00268
          1321  u2du222d0   0.05321 0.00283
          1362  202u22d20  -0.06341 0.00402
          1381  202u22d02  -0.05642 0.00318
          1406  ud2u22dud   0.06471 0.00419
          1442  022u22d20  -0.05709 0.00326
          1485  2uud2220d  -0.06204 0.00385
 
      printout of CI-coefficients larger than  0.05 for root  3
      energy=    -224.545031
      conf/sym  111111111     Coeff  Weight
             1  222222000  -0.13070 0.01708
             4  222220200   0.06038 0.00365
             6  222202200   0.27837 0.07749
           351  222022200  -0.91079 0.82954
           355  222022020   0.08399 0.00705
           454  2u2du22d0   0.05526 0.00305
           898  2u2ud22d0   0.12261 0.01503
          1441  022u222d0   0.06318 0.00399
          1966  202022220   0.06445 0.00415
          1971  202022202   0.05703 0.00325
          1982  ud20222ud  -0.06888 0.00474
          1996  022022220   0.06264 0.00392
 
      Natural orbitals and occupation numbers for root  1
      sym 1:   1.978502   1.930886   1.955049   1.932549   1.992338   1.834549   0.254547   0.086326   0.035253
 
      Natural orbitals and occupation numbers for root  2
      sym 1:   1.968094   1.936269   1.982567   1.084006   1.909643   1.916730   1.095926   0.076029   0.030736
 
      Natural orbitals and occupation numbers for root  3
      sym 1:   1.964687   1.943683   1.997417   0.255342   1.805202   1.989108   1.942699   0.077321   0.024540
 
      ************************************************************************************************************************
      *                                                                                                                      *
      *                                                    Final results                                                     *
      *                                                                                                                      *
      ************************************************************************************************************************
 
 
++    Wave function specifications:
      -----------------------------
 
      Number of closed shell electrons          12
      Number of electrons in active shells      12
      Max number of holes in RAS1 space          0
      Max nr of electrons in RAS3 space          0
      Number of inactive orbitals                6
      Number of active orbitals                  9
      Number of secondary orbitals              75
      Spin quantum number                      0.0
      State symmetry                             1
--
 
++    Orbital specifications:
      -----------------------
 
      Symmetry species                           1
                                                 a
      Frozen orbitals                            0
      Inactive orbitals                          6
      Active orbitals                            9
      RAS1 orbitals                              0
      RAS2 orbitals                              9
      RAS3 orbitals                              0
      Secondary orbitals                        75
      Deleted orbitals                           0
      Number of basis functions                 90
--
 
++    CI expansion specifications:
      ----------------------------
 
      Number of CSFs                          2520
      Number of determinants                  3570
      Number of root(s) required                 3
      CI roots used                              1     2     3
      weights                                0.333 0.333 0.333
      highest root included in the CI            3
      Root passed to geometry opt.               3
--
 
++    Final optimization conditions:
      ------------------------------
 
      Average CI energy                            -224.57090736
      RASSCF energy for state  3                   -224.54503068
      Super-CI energy                                -0.00000000
      RASSCF energy change                            0.00000000
      Max change in MO coefficients               0.873E-04
      Max non-diagonal density matrix element     0.108E-03
      Maximum BLB matrix element                  0.560E-05
      (orbital pair   6,  14 in symmetry   1)
      Norm of electronic gradient            0.141E+00
--
 
 
      Final state energy(ies):
      ------------------------
 
::    RASSCF root number  1 Total energy:   -224.59265598
::    RASSCF root number  2 Total energy:   -224.57503543
::    RASSCF root number  3 Total energy:   -224.54503068
 
++    Molecular orbitals:
      -------------------
 
      Pseudonatural active orbitals and approximate occupation numbers
 
 
 
 
      Molecular orbitals for symmetry species 1: a  
 
 
      Orbital                1         2         3         4         5         6         7         8         9        10
      Energy          -20.7741  -20.7179  -20.7178   -1.5368   -1.3512   -0.9666    0.0000    0.0000    0.0000    0.0000
      Occ. No.          2.0000    2.0000    2.0000    2.0000    2.0000    2.0000    1.9684    1.9374    1.9782    1.0913
 
    1 O1     1s         0.0051   -0.7063    0.7063   -0.0070    0.0015    0.0136   -0.0131   -0.0265   -0.0000   -0.0036
    2 O1     2s         0.0013    0.0056   -0.0055    0.5165   -0.6906    0.5108   -0.1706   -0.1790   -0.0000   -0.0574
    3 O1     3s         0.0006    0.0041   -0.0038   -0.0023   -0.0022    0.0227   -0.0162   -0.0560   -0.0000    0.0001
    4 O1     4s         0.0001    0.0008   -0.0007    0.0006   -0.0004    0.0032   -0.0022   -0.0110   -0.0000    0.0015
    5 O1     2px       -0.0002   -0.0002    0.0005   -0.0926   -0.0033    0.1876    0.2717    0.0066    0.0000    0.6596
    6 O1     3px       -0.0002   -0.0002    0.0001    0.0102    0.0003   -0.0176   -0.0163    0.0052   -0.0000    0.0302
    7 O1     4px       -0.0002    0.0000   -0.0001    0.0018    0.0004   -0.0026   -0.0026   -0.0008   -0.0000   -0.0001
    8 O1     2py       -0.0007   -0.0021    0.0026   -0.0284   -0.0711    0.1167   -0.2048   -0.4414   -0.0000    0.1653
    9 O1     3py       -0.0004   -0.0024    0.0027    0.0026   -0.0005   -0.0238    0.0235    0.0564    0.0000   -0.0046
   10 O1     4py        0.0002    0.0016   -0.0015    0.0001   -0.0013    0.0018    0.0011    0.0041   -0.0000   -0.0036
   11 O1     2pz        0.0000   -0.0000   -0.0000   -0.0000    0.0000    0.0000   -0.0000   -0.0000    0.3676    0.0000
   12 O1     3pz        0.0000   -0.0000    0.0000    0.0000   -0.0000   -0.0000    0.0000   -0.0000   -0.0248    0.0000
   13 O1     4pz        0.0000    0.0000   -0.0000    0.0000   -0.0000   -0.0000    0.0000    0.0000   -0.0035   -0.0000
   14 O1     3d2-      -0.0000    0.0001   -0.0002    0.0086   -0.0004   -0.0159   -0.0184    0.0018   -0.0000    0.0056
   15 O1     4d2-      -0.0000    0.0001   -0.0001    0.0009   -0.0000   -0.0020   -0.0026   -0.0003   -0.0000    0.0011
   16 O1     3d1-      -0.0000    0.0000   -0.0000    0.0000    0.0000   -0.0000    0.0000    0.0000   -0.0253    0.0000
   17 O1     4d1-       0.0000    0.0000    0.0000    0.0000   -0.0000   -0.0000    0.0000    0.0000   -0.0031    0.0000
   18 O1     3d0       -0.0001   -0.0006    0.0007   -0.0069    0.0018    0.0072   -0.0100   -0.0171   -0.0000    0.0010
   19 O1     4d0       -0.0001   -0.0003    0.0004   -0.0010    0.0004    0.0006   -0.0011   -0.0011   -0.0000   -0.0005
   20 O1     3d1+      -0.0000    0.0000   -0.0000    0.0000    0.0000   -0.0000   -0.0000   -0.0000   -0.0011    0.0000
   21 O1     4d1+      -0.0000    0.0000   -0.0000   -0.0000    0.0000   -0.0000   -0.0000   -0.0000    0.0000    0.0000
   22 O1     3d2+      -0.0002   -0.0010    0.0012   -0.0113    0.0031    0.0110   -0.0190   -0.0295   -0.0000    0.0039
   23 O1     4d2+      -0.0001   -0.0006    0.0007   -0.0017    0.0007    0.0010   -0.0019   -0.0019   -0.0000   -0.0006
   24 O1     4f3-       0.0001    0.0002   -0.0002    0.0033   -0.0019   -0.0019    0.0046    0.0071    0.0000   -0.0016
   25 O1     4f2-       0.0000   -0.0000    0.0000   -0.0000   -0.0000    0.0000    0.0000   -0.0000    0.0004   -0.0000
   26 O1     4f1-       0.0000    0.0001   -0.0002    0.0028   -0.0015   -0.0019    0.0033    0.0056    0.0000   -0.0007
   27 O1     4f0        0.0000    0.0000   -0.0000    0.0000   -0.0000   -0.0000    0.0000    0.0000   -0.0045    0.0000
   28 O1     4f1+      -0.0000    0.0000   -0.0000    0.0007   -0.0001   -0.0012   -0.0013    0.0002   -0.0000   -0.0002
   29 O1     4f2+       0.0000    0.0000   -0.0000    0.0000   -0.0000   -0.0000    0.0000    0.0000   -0.0057    0.0000
   30 O1     4f3+      -0.0000    0.0000   -0.0001    0.0026   -0.0002   -0.0043   -0.0047    0.0008   -0.0000   -0.0002
   31 O2     1s         0.9996    0.0000   -0.0053   -0.0286   -0.0000   -0.0132   -0.0085   -0.0000   -0.0000    0.0236
   32 O2     2s        -0.0023   -0.0000    0.0118    0.3993    0.0000   -0.6289    0.4847    0.0000    0.0000    0.2397
   33 O2     3s        -0.0021   -0.0000    0.0063   -0.0588   -0.0000   -0.0284   -0.0243   -0.0000   -0.0000    0.0675
   34 O2     4s        -0.0001   -0.0000    0.0009   -0.0112   -0.0000   -0.0051   -0.0050   -0.0000   -0.0000    0.0141
   35 O2     2px       -0.0002   -0.0000    0.0013   -0.2032   -0.0000    0.4202    0.5561    0.0000    0.0000   -0.6954
   36 O2     3px       -0.0001   -0.0000    0.0003    0.0045    0.0000   -0.0230   -0.0445   -0.0000   -0.0000   -0.0594
   37 O2     4px        0.0008    0.0000   -0.0002    0.0025   -0.0000   -0.0068   -0.0116   -0.0000   -0.0000   -0.0029
   38 O2     2py        0.0000   -0.0074   -0.0000   -0.0000   -0.0875   -0.0000   -0.0000    0.6092   -0.0000    0.0000
   39 O2     3py        0.0000   -0.0047   -0.0000   -0.0000    0.0402   -0.0000    0.0000   -0.0722    0.0000    0.0000
   40 O2     4py        0.0000    0.0012    0.0000   -0.0000   -0.0042    0.0000   -0.0000   -0.0063    0.0000   -0.0000
   41 O2     2pz        0.0000    0.0000   -0.0000   -0.0000   -0.0000    0.0000   -0.0000    0.0000    0.7108   -0.0000
   42 O2     3pz       -0.0000    0.0000    0.0000    0.0000   -0.0000   -0.0000    0.0000   -0.0000   -0.0535   -0.0000
   43 O2     4pz       -0.0000    0.0000    0.0000    0.0000   -0.0000   -0.0000    0.0000   -0.0000   -0.0141   -0.0000
   44 O2     3d2-      -0.0000   -0.0004   -0.0000    0.0000   -0.0050   -0.0000    0.0000    0.0173   -0.0000    0.0000
   45 O2     4d2-      -0.0000   -0.0002   -0.0000   -0.0000   -0.0005   -0.0000   -0.0000    0.0015    0.0000    0.0000
   46 O2     3d1-       0.0000    0.0000    0.0000   -0.0000    0.0000   -0.0000    0.0000   -0.0000    0.0000    0.0000
   47 O2     4d1-       0.0000    0.0000    0.0000   -0.0000    0.0000    0.0000    0.0000   -0.0000   -0.0000    0.0000
   48 O2     3d0        0.0003    0.0000   -0.0011   -0.0112   -0.0000   -0.0047   -0.0109   -0.0000   -0.0000    0.0150
   49 O2     4d0        0.0002    0.0000   -0.0005    0.0002    0.0000   -0.0003   -0.0009   -0.0000   -0.0000    0.0018
   50 O2     3d1+       0.0000    0.0000   -0.0000   -0.0000   -0.0000    0.0000   -0.0000    0.0000    0.0094   -0.0000
   51 O2     4d1+      -0.0000    0.0000   -0.0000   -0.0000   -0.0000   -0.0000   -0.0000   -0.0000    0.0010   -0.0000
   52 O2     3d2+       0.0005    0.0000   -0.0018   -0.0241   -0.0000    0.0021   -0.0038   -0.0000   -0.0000    0.0186
   53 O2     4d2+       0.0003    0.0000   -0.0009   -0.0003   -0.0000    0.0008   -0.0001   -0.0000    0.0000    0.0029
   54 O2     4f3-      -0.0000    0.0002    0.0000    0.0000    0.0054    0.0000   -0.0000   -0.0110    0.0000   -0.0000
   55 O2     4f2-      -0.0000    0.0000    0.0000   -0.0000    0.0000    0.0000    0.0000   -0.0000   -0.0000    0.0000
   56 O2     4f1-      -0.0000    0.0002    0.0000    0.0000    0.0044    0.0000    0.0000   -0.0091    0.0000   -0.0000
   57 O2     4f0       -0.0000    0.0000    0.0000    0.0000   -0.0000   -0.0000    0.0000   -0.0000   -0.0078    0.0000
   58 O2     4f1+       0.0000    0.0000   -0.0000    0.0003    0.0000   -0.0018   -0.0030   -0.0000   -0.0000    0.0005
   59 O2     4f2+      -0.0000    0.0000    0.0000    0.0000   -0.0000   -0.0000    0.0000   -0.0000   -0.0096    0.0000
   60 O2     4f3+       0.0001    0.0000   -0.0001    0.0010    0.0000   -0.0064   -0.0104   -0.0000   -0.0000    0.0009
   61 O3     1s         0.0051    0.7063    0.7063   -0.0070   -0.0015    0.0136   -0.0131    0.0265   -0.0000   -0.0036
   62 O3     2s         0.0013   -0.0056   -0.0055    0.5165    0.6906    0.5108   -0.1706    0.1790   -0.0000   -0.0574
   63 O3     3s         0.0006   -0.0041   -0.0038   -0.0023    0.0022    0.0227   -0.0162    0.0560   -0.0000    0.0001
   64 O3     4s         0.0001   -0.0008   -0.0007    0.0006    0.0004    0.0032   -0.0022    0.0110   -0.0000    0.0015
   65 O3     2px       -0.0002    0.0002    0.0005   -0.0926    0.0033    0.1876    0.2717   -0.0066    0.0000    0.6596
   66 O3     3px       -0.0002    0.0002    0.0001    0.0102   -0.0003   -0.0176   -0.0163   -0.0052   -0.0000    0.0302
   67 O3     4px       -0.0002   -0.0000   -0.0001    0.0018   -0.0004   -0.0026   -0.0026    0.0008   -0.0000   -0.0001
   68 O3     2py        0.0007   -0.0021   -0.0026    0.0284   -0.0711   -0.1167    0.2048   -0.4414    0.0000   -0.1653
   69 O3     3py        0.0004   -0.0024   -0.0027   -0.0026   -0.0005    0.0238   -0.0235    0.0564   -0.0000    0.0046
   70 O3     4py       -0.0002    0.0016    0.0015   -0.0001   -0.0013   -0.0018   -0.0011    0.0041    0.0000    0.0036
   71 O3     2pz        0.0000    0.0000   -0.0000   -0.0000   -0.0000    0.0000   -0.0000    0.0000    0.3676    0.0000
   72 O3     3pz        0.0000    0.0000    0.0000    0.0000    0.0000   -0.0000    0.0000    0.0000   -0.0248    0.0000
   73 O3     4pz        0.0000   -0.0000   -0.0000    0.0000    0.0000   -0.0000    0.0000   -0.0000   -0.0035   -0.0000
   74 O3     3d2-       0.0000    0.0001    0.0002   -0.0086   -0.0004    0.0159    0.0184    0.0018    0.0000   -0.0056
   75 O3     4d2-       0.0000    0.0001    0.0001   -0.0009   -0.0000    0.0020    0.0026   -0.0003    0.0000   -0.0011
   76 O3     3d1-       0.0000    0.0000    0.0000   -0.0000    0.0000    0.0000   -0.0000    0.0000    0.0253   -0.0000
   77 O3     4d1-      -0.0000    0.0000   -0.0000   -0.0000   -0.0000    0.0000   -0.0000    0.0000    0.0031   -0.0000
   78 O3     3d0       -0.0001    0.0006    0.0007   -0.0069   -0.0018    0.0072   -0.0100    0.0171   -0.0000    0.0010
   79 O3     4d0       -0.0001    0.0003    0.0004   -0.0010   -0.0004    0.0006   -0.0011    0.0011   -0.0000   -0.0005
   80 O3     3d1+      -0.0000   -0.0000   -0.0000    0.0000   -0.0000   -0.0000   -0.0000    0.0000   -0.0011    0.0000
   81 O3     4d1+      -0.0000   -0.0000   -0.0000   -0.0000   -0.0000   -0.0000   -0.0000    0.0000    0.0000    0.0000
   82 O3     3d2+      -0.0002    0.0010    0.0012   -0.0113   -0.0031    0.0110   -0.0190    0.0295   -0.0000    0.0039
   83 O3     4d2+      -0.0001    0.0006    0.0007   -0.0017   -0.0007    0.0010   -0.0019    0.0019   -0.0000   -0.0006
   84 O3     4f3-      -0.0001    0.0002    0.0002   -0.0033   -0.0019    0.0019   -0.0046    0.0071   -0.0000    0.0016
   85 O3     4f2-      -0.0000   -0.0000   -0.0000    0.0000   -0.0000   -0.0000   -0.0000   -0.0000   -0.0004    0.0000
   86 O3     4f1-      -0.0000    0.0001    0.0002   -0.0028   -0.0015    0.0019   -0.0033    0.0056   -0.0000    0.0007
   87 O3     4f0        0.0000   -0.0000   -0.0000    0.0000    0.0000   -0.0000    0.0000   -0.0000   -0.0045    0.0000
   88 O3     4f1+      -0.0000   -0.0000   -0.0000    0.0007    0.0001   -0.0012   -0.0013   -0.0002   -0.0000   -0.0002
   89 O3     4f2+       0.0000   -0.0000   -0.0000    0.0000    0.0000   -0.0000    0.0000   -0.0000   -0.0057    0.0000
   90 O3     4f3+      -0.0000   -0.0000   -0.0001    0.0026    0.0002   -0.0043   -0.0047   -0.0008   -0.0000   -0.0002
 
 
      Orbital               11        12        13        14        15        16        17        18        19        20
      Energy            0.0000    0.0000    0.0000    0.0000    0.0000    0.1703    0.2371    0.2377    0.2635    0.3674
      Occ. No.          1.9019    1.9135    1.0979    0.0813    0.0303    0.0000    0.0000    0.0000    0.0000    0.0000
 
    1 O1     1s        -0.0008    0.0000    0.0000   -0.0128   -0.0483   -0.2277   -0.0299    0.0000    0.1165   -0.0037
    2 O1     2s        -0.0104    0.0000    0.0000   -0.2336   -0.4780   -1.6409   -0.2127    0.0000    0.8332   -0.0129
    3 O1     3s        -0.0034    0.0000   -0.0000   -0.0417   -0.1250   -1.0068   -0.1240    0.0000    0.5792   -0.0015
    4 O1     4s        -0.0005    0.0000   -0.0000   -0.0042   -0.0172   -0.2297   -0.0248    0.0000    0.1329    0.0010
    5 O1     2px       -0.6991   -0.0000   -0.0000   -0.0625    0.0570    0.0720   -0.0351    0.0000   -0.0379   -0.1656
    6 O1     3px        0.0014    0.0000   -0.0000    0.0532   -0.0300    0.0944    0.4149   -0.0000    0.0573   -0.8695
    7 O1     4px        0.0074    0.0000    0.0000    0.0049    0.0089    0.0161    0.2088   -0.0000    0.0420   -0.3470
    8 O1     2py        0.0346    0.0000   -0.0000    0.7002    0.6875    0.5953    0.1651   -0.0000   -0.7382   -0.0347
    9 O1     3py        0.0055   -0.0000   -0.0000   -0.0697   -0.0299    0.8056    0.1865   -0.0000   -1.1406   -0.0196
   10 O1     4py       -0.0006   -0.0000    0.0000   -0.0069   -0.0207    0.1026    0.0233    0.0000   -0.2413   -0.0013
   11 O1     2pz        0.0000   -0.7007    0.6542   -0.0000   -0.0000   -0.0000   -0.0000   -0.0412   -0.0000    0.0000
   12 O1     3pz       -0.0000    0.0027    0.0292   -0.0000    0.0000   -0.0000    0.0000    0.4182    0.0000    0.0000
   13 O1     4pz       -0.0000    0.0074   -0.0003    0.0000   -0.0000   -0.0000    0.0000    0.2136    0.0000    0.0000
   14 O1     3d2-       0.0170    0.0000   -0.0000    0.0062    0.0145   -0.0157    0.0013   -0.0000    0.0123    0.0152
   15 O1     4d2-       0.0022    0.0000   -0.0000    0.0037    0.0051   -0.0104   -0.0045    0.0000    0.0069    0.0165
   16 O1     3d1-      -0.0000    0.0165    0.0078    0.0000   -0.0000    0.0000    0.0000    0.0048    0.0000   -0.0000
   17 O1     4d1-      -0.0000    0.0020    0.0014    0.0000   -0.0000    0.0000   -0.0000   -0.0025   -0.0000   -0.0000
   18 O1     3d0        0.0005    0.0000   -0.0000    0.0099    0.0002    0.0556    0.0142   -0.0000   -0.0651   -0.0031
   19 O1     4d0        0.0005    0.0000    0.0000    0.0030    0.0071    0.0334    0.0090   -0.0000   -0.0450   -0.0030
   20 O1     3d1+       0.0000    0.0001    0.0011    0.0000    0.0000   -0.0000    0.0000    0.0012   -0.0000   -0.0000
   21 O1     4d1+       0.0000   -0.0003    0.0002   -0.0000   -0.0000   -0.0000    0.0000    0.0005   -0.0000   -0.0000
   22 O1     3d2+       0.0013    0.0000   -0.0000    0.0208    0.0048    0.0953    0.0266   -0.0000   -0.1110    0.0009
   23 O1     4d2+       0.0004    0.0000    0.0000    0.0057    0.0125    0.0572    0.0164   -0.0000   -0.0771   -0.0004
   24 O1     4f3-      -0.0006   -0.0000    0.0000   -0.0036   -0.0009   -0.0066   -0.0018    0.0000    0.0142   -0.0011
   25 O1     4f2-      -0.0000   -0.0003   -0.0004    0.0000   -0.0000   -0.0000    0.0000    0.0003    0.0000    0.0000
   26 O1     4f1-      -0.0001   -0.0000    0.0000   -0.0018    0.0014   -0.0050   -0.0019    0.0000    0.0113    0.0014
   27 O1     4f0       -0.0000    0.0034    0.0001    0.0000    0.0000    0.0000   -0.0000   -0.0019   -0.0000   -0.0000
   28 O1     4f1+       0.0015    0.0000    0.0000    0.0008    0.0016   -0.0002   -0.0009    0.0000    0.0007    0.0026
   29 O1     4f2+      -0.0000    0.0042    0.0003   -0.0000    0.0000    0.0000   -0.0000   -0.0025   -0.0000   -0.0000
   30 O1     4f3+       0.0051    0.0000    0.0000    0.0020    0.0054   -0.0007   -0.0036    0.0000    0.0025    0.0099
   31 O2     1s         0.0000   -0.0000   -0.0000    0.0767    0.0000    0.0000    0.0767   -0.0000   -0.3624   -0.0000
   32 O2     2s         0.0000    0.0000   -0.0000    0.8408    0.0000    0.0000    0.5299   -0.0000   -2.4153    0.0000
   33 O2     3s         0.0000   -0.0000   -0.0000    0.0401   -0.0000    0.0000    0.3210   -0.0000   -1.4193    0.0000
   34 O2     4s         0.0000   -0.0000   -0.0000    0.0207    0.0000    0.0000    0.0686   -0.0000   -0.2847    0.0000
   35 O2     2px       -0.0000    0.0000    0.0000    0.2552   -0.0000    0.0000   -0.1057    0.0000   -0.1327    0.0000
   36 O2     3px       -0.0000    0.0000    0.0000   -0.1589   -0.0000    0.0000    0.2434   -0.0000   -0.1087    0.0000
   37 O2     4px       -0.0000   -0.0000    0.0000    0.0139    0.0000    0.0000    0.1616   -0.0000    0.0099    0.0000
   38 O2     2py        0.0326   -0.0000   -0.0000   -0.0000    1.1174    1.5452   -0.0000   -0.0000    0.0000   -0.0185
   39 O2     3py       -0.0112    0.0000   -0.0000    0.0000   -0.1007    1.7303   -0.0000   -0.0000    0.0000    0.0583
   40 O2     4py       -0.0014   -0.0000    0.0000    0.0000    0.0255    0.1862   -0.0000   -0.0000    0.0000    0.0356
   41 O2     2pz        0.0000   -0.0000   -0.7706    0.0000    0.0000    0.0000   -0.0000   -0.1346   -0.0000    0.0000
   42 O2     3pz        0.0000   -0.0000   -0.0491    0.0000   -0.0000    0.0000    0.0000    0.2187    0.0000    0.0000
   43 O2     4pz       -0.0000   -0.0000   -0.0002    0.0000    0.0000    0.0000    0.0000    0.1616    0.0000    0.0000
   44 O2     3d2-      -0.0433   -0.0000   -0.0000    0.0000    0.0493    0.0329   -0.0000   -0.0000   -0.0000    0.1121
   45 O2     4d2-      -0.0076   -0.0000   -0.0000    0.0000   -0.0144    0.0204   -0.0000   -0.0000   -0.0000    0.0707
   46 O2     3d1-       0.0000   -0.0434   -0.0000    0.0000    0.0000   -0.0000    0.0000   -0.0000   -0.0000   -0.0000
   47 O2     4d1-       0.0000   -0.0073   -0.0000    0.0000    0.0000   -0.0000   -0.0000   -0.0000   -0.0000   -0.0000
   48 O2     3d0        0.0000   -0.0000   -0.0000    0.0283    0.0000   -0.0000   -0.0217    0.0000    0.1002    0.0000
   49 O2     4d0        0.0000   -0.0000   -0.0000    0.0046   -0.0000   -0.0000   -0.0123    0.0000    0.0465    0.0000
   50 O2     3d1+      -0.0000   -0.0000   -0.0058   -0.0000    0.0000   -0.0000   -0.0000   -0.0044   -0.0000    0.0000
[...]

>>> COPY /lustre/isaac/scratch/gjones39/ANO-RCC-VTZP/ozone_171.25/3193835/GMJ_IVECW_H_P_2_.csv /lustre/isaac/scratch/gjones39/ANO-RCC-VTZP/ozone_171.25/GMJ_IVECW_H_P_2_.csv

>>> COPY /lustre/isaac/scratch/gjones39/ANO-RCC-VTZP/ozone_171.25/3193835/GMJ_IVECX_H_P_2_.csv /lustre/isaac/scratch/gjones39/ANO-RCC-VTZP/ozone_171.25/GMJ_IVECX_H_P_2_.csv

>>> COPY /lustre/isaac/scratch/gjones39/ANO-RCC-VTZP/ozone_171.25/3193835/GMJ_IVECC2_H_P_2_.csv /lustre/isaac/scratch/gjones39/ANO-RCC-VTZP/ozone_171.25/GMJ_IVECC2_H_P_2_.csv

>>> COPY /lustre/isaac/scratch/gjones39/ANO-RCC-VTZP/ozone_171.25/3193835/GMJ_e2_H_P_2_.csv /lustre/isaac/scratch/gjones39/ANO-RCC-VTZP/ozone_171.25/GMJ_e2_H_P_2_.csv

>>> END FOREACH

>>> EXPORT j = M

>>> IF (-FILE GMJ_e2_${i}_${j}_${k}_.csv)

>>> COPY /lustre/isaac/scratch/gjones39/ANO-RCC-VTZP/ozone_171.25/3193835/GMJ_RHS_H_M_2_.csv /lustre/isaac/scratch/gjones39/ANO-RCC-VTZP/ozone_171.25/GMJ_RHS_H_M_2_.csv

>>> COPY /lustre/isaac/scratch/gjones39/ANO-RCC-VTZP/ozone_171.25/3193835/GMJ_IVECW_H_M_2_.csv /lustre/isaac/scratch/gjones39/ANO-RCC-VTZP/ozone_171.25/GMJ_IVECW_H_M_2_.csv

>>> COPY /lustre/isaac/scratch/gjones39/ANO-RCC-VTZP/ozone_171.25/3193835/GMJ_IVECX_H_M_2_.csv /lustre/isaac/scratch/gjones39/ANO-RCC-VTZP/ozone_171.25/GMJ_IVECX_H_M_2_.csv

>>> COPY /lustre/isaac/scratch/gjones39/ANO-RCC-VTZP/ozone_171.25/3193835/GMJ_IVECC2_H_M_2_.csv /lustre/isaac/scratch/gjones39/ANO-RCC-VTZP/ozone_171.25/GMJ_IVECC2_H_M_2_.csv

>>> COPY /lustre/isaac/scratch/gjones39/ANO-RCC-VTZP/ozone_171.25/3193835/GMJ_e2_H_M_2_.csv /lustre/isaac/scratch/gjones39/ANO-RCC-VTZP/ozone_171.25/GMJ_e2_H_M_2_.csv

>>> END FOREACH

>>> END FOREACH

>>> END FOREACH

>>> EXPORT k = 3

>>> EXPORT i = B

>>> EXPORT j = P

>>> IF (-FILE GMJ_e2_${i}_${j}_${k}_.csv)

>>> COPY /lustre/isaac/scratch/gjones39/ANO-RCC-VTZP/ozone_171.25/3193835/GMJ_RHS_B_P_3_.csv /lustre/isaac/scratch/gjones39/ANO-RCC-VTZP/ozone_171.25/GMJ_RHS_B_P_3_.csv

>>> COPY /lustre/isaac/scratch/gjones39/ANO-RCC-VTZP/ozone_171.25/3193835/GMJ_IVECW_B_P_3_.csv /lustre/isaac/scratch/gjones39/ANO-RCC-VTZP/ozone_171.25/GMJ_IVECW_B_P_3_.csv

>>> COPY /lustre/isaac/scratch/gjones39/ANO-RCC-VTZP/ozone_171.25/3193835/GMJ_IVECX_B_P_3_.csv /lustre/isaac/scratch/gjones39/ANO-RCC-VTZP/ozone_171.25/GMJ_IVECX_B_P_3_.csv

>>> COPY /lustre/isaac/scratch/gjones39/ANO-RCC-VTZP/ozone_171.25/3193835/GMJ_IVECC2_B_P_3_.csv /lustre/isaac/scratch/gjones39/ANO-RCC-VTZP/ozone_171.25/GMJ_IVECC2_B_P_3_.csv

>>> COPY /lustre/isaac/scratch/gjones39/ANO-RCC-VTZP/ozone_171.25/3193835/GMJ_e2_B_P_3_.csv /lustre/isaac/scratch/gjones39/ANO-RCC-VTZP/ozone_171.25/GMJ_e2_B_P_3_.csv

>>> END FOREACH

>>> EXPORT j = M

>>> IF (-FILE GMJ_e2_${i}_${j}_${k}_.csv)

>>> COPY /lustre/isaac/scratch/gjones39/ANO-RCC-VTZP/ozone_171.25/3193835/GMJ_RHS_B_M_3_.csv /lustre/isaac/scratch/gjones39/ANO-RCC-VTZP/ozone_171.25/GMJ_RHS_B_M_3_.csv

>>> COPY /lustre/isaac/scratch/gjones39/ANO-RCC-VTZP/ozone_171.25/3193835/GMJ_IVECW_B_M_3_.csv /lustre/isaac/scratch/gjones39/ANO-RCC-VTZP/ozone_171.25/GMJ_IVECW_B_M_3_.csv

>>> COPY /lustre/isaac/scratch/gjones39/ANO-RCC-VTZP/ozone_171.25/3193835/GMJ_IVECX_B_M_3_.csv /lustre/isaac/scratch/gjones39/ANO-RCC-VTZP/ozone_171.25/GMJ_IVECX_B_M_3_.csv

>>> COPY /lustre/isaac/scratch/gjones39/ANO-RCC-VTZP/ozone_171.25/3193835/GMJ_IVECC2_B_M_3_.csv /lustre/isaac/scratch/gjones39/ANO-RCC-VTZP/ozone_171.25/GMJ_IVECC2_B_M_3_.csv

>>> COPY /lustre/isaac/scratch/gjones39/ANO-RCC-VTZP/ozone_171.25/3193835/GMJ_e2_B_M_3_.csv /lustre/isaac/scratch/gjones39/ANO-RCC-VTZP/ozone_171.25/GMJ_e2_B_M_3_.csv

>>> END FOREACH

>>> END FOREACH

>>> EXPORT i = E

>>> EXPORT j = P

>>> IF (-FILE GMJ_e2_${i}_${j}_${k}_.csv)

>>> COPY /lustre/isaac/scratch/gjones39/ANO-RCC-VTZP/ozone_171.25/3193835/GMJ_RHS_E_P_3_.csv /lustre/isaac/scratch/gjones39/ANO-RCC-VTZP/ozone_171.25/GMJ_RHS_E_P_3_.csv

>>> COPY /lustre/isaac/scratch/gjones39/ANO-RCC-VTZP/ozone_171.25/3193835/GMJ_IVECW_E_P_3_.csv /lustre/isaac/scratch/gjones39/ANO-RCC-VTZP/ozone_171.25/GMJ_IVECW_E_P_3_.csv

>>> COPY /lustre/isaac/scratch/gjones39/ANO-RCC-VTZP/ozone_171.25/3193835/GMJ_IVECX_E_P_3_.csv /lustre/isaac/scratch/gjones39/ANO-RCC-VTZP/ozone_171.25/GMJ_IVECX_E_P_3_.csv

>>> COPY /lustre/isaac/scratch/gjones39/ANO-RCC-VTZP/ozone_171.25/3193835/GMJ_IVECC2_E_P_3_.csv /lustre/isaac/scratch/gjones39/ANO-RCC-VTZP/ozone_171.25/GMJ_IVECC2_E_P_3_.csv

>>> COPY /lustre/isaac/scratch/gjones39/ANO-RCC-VTZP/ozone_171.25/3193835/GMJ_e2_E_P_3_.csv /lustre/isaac/scratch/gjones39/ANO-RCC-VTZP/ozone_171.25/GMJ_e2_E_P_3_.csv

>>> END FOREACH

>>> EXPORT j = M

>>> IF (-FILE GMJ_e2_${i}_${j}_${k}_.csv)

>>> COPY /lustre/isaac/scratch/gjones39/ANO-RCC-VTZP/ozone_171.25/3193835/GMJ_RHS_E_M_3_.csv /lustre/isaac/scratch/gjones39/ANO-RCC-VTZP/ozone_171.25/GMJ_RHS_E_M_3_.csv

>>> COPY /lustre/isaac/scratch/gjones39/ANO-RCC-VTZP/ozone_171.25/3193835/GMJ_IVECW_E_M_3_.csv /lustre/isaac/scratch/gjones39/ANO-RCC-VTZP/ozone_171.25/GMJ_IVECW_E_M_3_.csv

>>> COPY /lustre/isaac/scratch/gjones39/ANO-RCC-VTZP/ozone_171.25/3193835/GMJ_IVECX_E_M_3_.csv /lustre/isaac/scratch/gjones39/ANO-RCC-VTZP/ozone_171.25/GMJ_IVECX_E_M_3_.csv

>>> COPY /lustre/isaac/scratch/gjones39/ANO-RCC-VTZP/ozone_171.25/3193835/GMJ_IVECC2_E_M_3_.csv /lustre/isaac/scratch/gjones39/ANO-RCC-VTZP/ozone_171.25/GMJ_IVECC2_E_M_3_.csv

>>> COPY /lustre/isaac/scratch/gjones39/ANO-RCC-VTZP/ozone_171.25/3193835/GMJ_e2_E_M_3_.csv /lustre/isaac/scratch/gjones39/ANO-RCC-VTZP/ozone_171.25/GMJ_e2_E_M_3_.csv

>>> END FOREACH

>>> END FOREACH

>>> EXPORT i = F

>>> EXPORT j = P

>>> IF (-FILE GMJ_e2_${i}_${j}_${k}_.csv)

>>> COPY /lustre/isaac/scratch/gjones39/ANO-RCC-VTZP/ozone_171.25/3193835/GMJ_RHS_F_P_3_.csv /lustre/isaac/scratch/gjones39/ANO-RCC-VTZP/ozone_171.25/GMJ_RHS_F_P_3_.csv

>>> COPY /lustre/isaac/scratch/gjones39/ANO-RCC-VTZP/ozone_171.25/3193835/GMJ_IVECW_F_P_3_.csv /lustre/isaac/scratch/gjones39/ANO-RCC-VTZP/ozone_171.25/GMJ_IVECW_F_P_3_.csv

>>> COPY /lustre/isaac/scratch/gjones39/ANO-RCC-VTZP/ozone_171.25/3193835/GMJ_IVECX_F_P_3_.csv /lustre/isaac/scratch/gjones39/ANO-RCC-VTZP/ozone_171.25/GMJ_IVECX_F_P_3_.csv

>>> COPY /lustre/isaac/scratch/gjones39/ANO-RCC-VTZP/ozone_171.25/3193835/GMJ_IVECC2_F_P_3_.csv /lustre/isaac/scratch/gjones39/ANO-RCC-VTZP/ozone_171.25/GMJ_IVECC2_F_P_3_.csv

>>> COPY /lustre/isaac/scratch/gjones39/ANO-RCC-VTZP/ozone_171.25/3193835/GMJ_e2_F_P_3_.csv /lustre/isaac/scratch/gjones39/ANO-RCC-VTZP/ozone_171.25/GMJ_e2_F_P_3_.csv

>>> END FOREACH

>>> EXPORT j = M

>>> IF (-FILE GMJ_e2_${i}_${j}_${k}_.csv)

>>> COPY /lustre/isaac/scratch/gjones39/ANO-RCC-VTZP/ozone_171.25/3193835/GMJ_RHS_F_M_3_.csv /lustre/isaac/scratch/gjones39/ANO-RCC-VTZP/ozone_171.25/GMJ_RHS_F_M_3_.csv

>>> COPY /lustre/isaac/scratch/gjones39/ANO-RCC-VTZP/ozone_171.25/3193835/GMJ_IVECW_F_M_3_.csv /lustre/isaac/scratch/gjones39/ANO-RCC-VTZP/ozone_171.25/GMJ_IVECW_F_M_3_.csv

>>> COPY /lustre/isaac/scratch/gjones39/ANO-RCC-VTZP/ozone_171.25/3193835/GMJ_IVECX_F_M_3_.csv /lustre/isaac/scratch/gjones39/ANO-RCC-VTZP/ozone_171.25/GMJ_IVECX_F_M_3_.csv

>>> COPY /lustre/isaac/scratch/gjones39/ANO-RCC-VTZP/ozone_171.25/3193835/GMJ_IVECC2_F_M_3_.csv /lustre/isaac/scratch/gjones39/ANO-RCC-VTZP/ozone_171.25/GMJ_IVECC2_F_M_3_.csv

>>> COPY /lustre/isaac/scratch/gjones39/ANO-RCC-VTZP/ozone_171.25/3193835/GMJ_e2_F_M_3_.csv /lustre/isaac/scratch/gjones39/ANO-RCC-VTZP/ozone_171.25/GMJ_e2_F_M_3_.csv

>>> END FOREACH

>>> END FOREACH

>>> EXPORT i = G

>>> EXPORT j = P

>>> IF (-FILE GMJ_e2_${i}_${j}_${k}_.csv)

>>> COPY /lustre/isaac/scratch/gjones39/ANO-RCC-VTZP/ozone_171.25/3193835/GMJ_RHS_G_P_3_.csv /lustre/isaac/scratch/gjones39/ANO-RCC-VTZP/ozone_171.25/GMJ_RHS_G_P_3_.csv

>>> COPY /lustre/isaac/scratch/gjones39/ANO-RCC-VTZP/ozone_171.25/3193835/GMJ_IVECW_G_P_3_.csv /lustre/isaac/scratch/gjones39/ANO-RCC-VTZP/ozone_171.25/GMJ_IVECW_G_P_3_.csv

>>> COPY /lustre/isaac/scratch/gjones39/ANO-RCC-VTZP/ozone_171.25/3193835/GMJ_IVECX_G_P_3_.csv /lustre/isaac/scratch/gjones39/ANO-RCC-VTZP/ozone_171.25/GMJ_IVECX_G_P_3_.csv

>>> COPY /lustre/isaac/scratch/gjones39/ANO-RCC-VTZP/ozone_171.25/3193835/GMJ_IVECC2_G_P_3_.csv /lustre/isaac/scratch/gjones39/ANO-RCC-VTZP/ozone_171.25/GMJ_IVECC2_G_P_3_.csv

>>> COPY /lustre/isaac/scratch/gjones39/ANO-RCC-VTZP/ozone_171.25/3193835/GMJ_e2_G_P_3_.csv /lustre/isaac/scratch/gjones39/ANO-RCC-VTZP/ozone_171.25/GMJ_e2_G_P_3_.csv

>>> END FOREACH

>>> EXPORT j = M

>>> IF (-FILE GMJ_e2_${i}_${j}_${k}_.csv)

>>> COPY /lustre/isaac/scratch/gjones39/ANO-RCC-VTZP/ozone_171.25/3193835/GMJ_RHS_G_M_3_.csv /lustre/isaac/scratch/gjones39/ANO-RCC-VTZP/ozone_171.25/GMJ_RHS_G_M_3_.csv

>>> COPY /lustre/isaac/scratch/gjones39/ANO-RCC-VTZP/ozone_171.25/3193835/GMJ_IVECW_G_M_3_.csv /lustre/isaac/scratch/gjones39/ANO-RCC-VTZP/ozone_171.25/GMJ_IVECW_G_M_3_.csv

>>> COPY /lustre/isaac/scratch/gjones39/ANO-RCC-VTZP/ozone_171.25/3193835/GMJ_IVECX_G_M_3_.csv /lustre/isaac/scratch/gjones39/ANO-RCC-VTZP/ozone_171.25/GMJ_IVECX_G_M_3_.csv

>>> COPY /lustre/isaac/scratch/gjones39/ANO-RCC-VTZP/ozone_171.25/3193835/GMJ_IVECC2_G_M_3_.csv /lustre/isaac/scratch/gjones39/ANO-RCC-VTZP/ozone_171.25/GMJ_IVECC2_G_M_3_.csv

>>> COPY /lustre/isaac/scratch/gjones39/ANO-RCC-VTZP/ozone_171.25/3193835/GMJ_e2_G_M_3_.csv /lustre/isaac/scratch/gjones39/ANO-RCC-VTZP/ozone_171.25/GMJ_e2_G_M_3_.csv

>>> END FOREACH

>>> END FOREACH

>>> EXPORT i = H

>>> EXPORT j = P

>>> IF (-FILE GMJ_e2_${i}_${j}_${k}_.csv)

>>> COPY /lustre/isaac/scratch/gjones39/ANO-RCC-VTZP/ozone_171.25/3193835/GMJ_RHS_H_P_3_.csv /lustre/isaac/scratch/gjones39/ANO-RCC-VTZP/ozone_171.25/GMJ_RHS_H_P_3_.csv

>>> COPY /lustre/isaac/scratch/gjones39/ANO-RCC-VTZP/ozone_171.25/3193835/GMJ_IVECW_H_P_3_.csv /lustre/isaac/scratch/gjones39/ANO-RCC-VTZP/ozone_171.25/GMJ_IVECW_H_P_3_.csv

>>> COPY /lustre/isaac/scratch/gjones39/ANO-RCC-VTZP/ozone_171.25/3193835/GMJ_IVECX_H_P_3_.csv /lustre/isaac/scratch/gjones39/ANO-RCC-VTZP/ozone_171.25/GMJ_IVECX_H_P_3_.csv

>>> COPY /lustre/isaac/scratch/gjones39/ANO-RCC-VTZP/ozone_171.25/3193835/GMJ_IVECC2_H_P_3_.csv /lustre/isaac/scratch/gjones39/ANO-RCC-VTZP/ozone_171.25/GMJ_IVECC2_H_P_3_.csv

>>> COPY /lustre/isaac/scratch/gjones39/ANO-RCC-VTZP/ozone_171.25/3193835/GMJ_e2_H_P_3_.csv /lustre/isaac/scratch/gjones39/ANO-RCC-VTZP/ozone_171.25/GMJ_e2_H_P_3_.csv

>>> END FOREACH

>>> EXPORT j = M

>>> IF (-FILE GMJ_e2_${i}_${j}_${k}_.csv)

>>> COPY /lustre/isaac/scratch/gjones39/ANO-RCC-VTZP/ozone_171.25/3193835/GMJ_RHS_H_M_3_.csv /lustre/isaac/scratch/gjones39/ANO-RCC-VTZP/ozone_171.25/GMJ_RHS_H_M_3_.csv

>>> COPY /lustre/isaac/scratch/gjones39/ANO-RCC-VTZP/ozone_171.25/3193835/GMJ_IVECW_H_M_3_.csv /lustre/isaac/scratch/gjones39/ANO-RCC-VTZP/ozone_171.25/GMJ_IVECW_H_M_3_.csv

>>> COPY /lustre/isaac/scratch/gjones39/ANO-RCC-VTZP/ozone_171.25/3193835/GMJ_IVECX_H_M_3_.csv /lustre/isaac/scratch/gjones39/ANO-RCC-VTZP/ozone_171.25/GMJ_IVECX_H_M_3_.csv

>>> COPY /lustre/isaac/scratch/gjones39/ANO-RCC-VTZP/ozone_171.25/3193835/GMJ_IVECC2_H_M_3_.csv /lustre/isaac/scratch/gjones39/ANO-RCC-VTZP/ozone_171.25/GMJ_IVECC2_H_M_3_.csv

>>> COPY /lustre/isaac/scratch/gjones39/ANO-RCC-VTZP/ozone_171.25/3193835/GMJ_e2_H_M_3_.csv /lustre/isaac/scratch/gjones39/ANO-RCC-VTZP/ozone_171.25/GMJ_e2_H_M_3_.csv

>>> END FOREACH

>>> END FOREACH

>>> END FOREACH

>>> EXPORT j = 1

>>> EXPORT i = A

>>> IF (-FILE GMJ_e2_${i}_${j}_.csv)

>>> COPY /lustre/isaac/scratch/gjones39/ANO-RCC-VTZP/ozone_171.25/3193835/GMJ_RHS_A_1_.csv /lustre/isaac/scratch/gjones39/ANO-RCC-VTZP/ozone_171.25/GMJ_RHS_A_1_.csv

>>> COPY /lustre/isaac/scratch/gjones39/ANO-RCC-VTZP/ozone_171.25/3193835/GMJ_IVECW_A_1_.csv /lustre/isaac/scratch/gjones39/ANO-RCC-VTZP/ozone_171.25/GMJ_IVECW_A_1_.csv

>>> COPY /lustre/isaac/scratch/gjones39/ANO-RCC-VTZP/ozone_171.25/3193835/GMJ_IVECX_A_1_.csv /lustre/isaac/scratch/gjones39/ANO-RCC-VTZP/ozone_171.25/GMJ_IVECX_A_1_.csv

>>> COPY /lustre/isaac/scratch/gjones39/ANO-RCC-VTZP/ozone_171.25/3193835/GMJ_IVECC2_A_1_.csv /lustre/isaac/scratch/gjones39/ANO-RCC-VTZP/ozone_171.25/GMJ_IVECC2_A_1_.csv

>>> COPY /lustre/isaac/scratch/gjones39/ANO-RCC-VTZP/ozone_171.25/3193835/GMJ_e2_A_1_.csv /lustre/isaac/scratch/gjones39/ANO-RCC-VTZP/ozone_171.25/GMJ_e2_A_1_.csv

>>> END FOREACH

>>> EXPORT i = C

>>> IF (-FILE GMJ_e2_${i}_${j}_.csv)

>>> COPY /lustre/isaac/scratch/gjones39/ANO-RCC-VTZP/ozone_171.25/3193835/GMJ_RHS_C_1_.csv /lustre/isaac/scratch/gjones39/ANO-RCC-VTZP/ozone_171.25/GMJ_RHS_C_1_.csv

>>> COPY /lustre/isaac/scratch/gjones39/ANO-RCC-VTZP/ozone_171.25/3193835/GMJ_IVECW_C_1_.csv /lustre/isaac/scratch/gjones39/ANO-RCC-VTZP/ozone_171.25/GMJ_IVECW_C_1_.csv

>>> COPY /lustre/isaac/scratch/gjones39/ANO-RCC-VTZP/ozone_171.25/3193835/GMJ_IVECX_C_1_.csv /lustre/isaac/scratch/gjones39/ANO-RCC-VTZP/ozone_171.25/GMJ_IVECX_C_1_.csv

>>> COPY /lustre/isaac/scratch/gjones39/ANO-RCC-VTZP/ozone_171.25/3193835/GMJ_IVECC2_C_1_.csv /lustre/isaac/scratch/gjones39/ANO-RCC-VTZP/ozone_171.25/GMJ_IVECC2_C_1_.csv

>>> COPY /lustre/isaac/scratch/gjones39/ANO-RCC-VTZP/ozone_171.25/3193835/GMJ_e2_C_1_.csv /lustre/isaac/scratch/gjones39/ANO-RCC-VTZP/ozone_171.25/GMJ_e2_C_1_.csv

>>> END FOREACH

>>> EXPORT i = D

>>> IF (-FILE GMJ_e2_${i}_${j}_.csv)

>>> COPY /lustre/isaac/scratch/gjones39/ANO-RCC-VTZP/ozone_171.25/3193835/GMJ_RHS_D_1_.csv /lustre/isaac/scratch/gjones39/ANO-RCC-VTZP/ozone_171.25/GMJ_RHS_D_1_.csv

>>> COPY /lustre/isaac/scratch/gjones39/ANO-RCC-VTZP/ozone_171.25/3193835/GMJ_IVECW_D_1_.csv /lustre/isaac/scratch/gjones39/ANO-RCC-VTZP/ozone_171.25/GMJ_IVECW_D_1_.csv

>>> COPY /lustre/isaac/scratch/gjones39/ANO-RCC-VTZP/ozone_171.25/3193835/GMJ_IVECX_D_1_.csv /lustre/isaac/scratch/gjones39/ANO-RCC-VTZP/ozone_171.25/GMJ_IVECX_D_1_.csv

>>> COPY /lustre/isaac/scratch/gjones39/ANO-RCC-VTZP/ozone_171.25/3193835/GMJ_IVECC2_D_1_.csv /lustre/isaac/scratch/gjones39/ANO-RCC-VTZP/ozone_171.25/GMJ_IVECC2_D_1_.csv

>>> COPY /lustre/isaac/scratch/gjones39/ANO-RCC-VTZP/ozone_171.25/3193835/GMJ_e2_D_1_.csv /lustre/isaac/scratch/gjones39/ANO-RCC-VTZP/ozone_171.25/GMJ_e2_D_1_.csv

>>> END FOREACH

>>> END FOREACH

>>> EXPORT j = 2

>>> EXPORT i = A

>>> IF (-FILE GMJ_e2_${i}_${j}_.csv)

>>> COPY /lustre/isaac/scratch/gjones39/ANO-RCC-VTZP/ozone_171.25/3193835/GMJ_RHS_A_2_.csv /lustre/isaac/scratch/gjones39/ANO-RCC-VTZP/ozone_171.25/GMJ_RHS_A_2_.csv

>>> COPY /lustre/isaac/scratch/gjones39/ANO-RCC-VTZP/ozone_171.25/3193835/GMJ_IVECW_A_2_.csv /lustre/isaac/scratch/gjones39/ANO-RCC-VTZP/ozone_171.25/GMJ_IVECW_A_2_.csv

>>> COPY /lustre/isaac/scratch/gjones39/ANO-RCC-VTZP/ozone_171.25/3193835/GMJ_IVECX_A_2_.csv /lustre/isaac/scratch/gjones39/ANO-RCC-VTZP/ozone_171.25/GMJ_IVECX_A_2_.csv

>>> COPY /lustre/isaac/scratch/gjones39/ANO-RCC-VTZP/ozone_171.25/3193835/GMJ_IVECC2_A_2_.csv /lustre/isaac/scratch/gjones39/ANO-RCC-VTZP/ozone_171.25/GMJ_IVECC2_A_2_.csv

>>> COPY /lustre/isaac/scratch/gjones39/ANO-RCC-VTZP/ozone_171.25/3193835/GMJ_e2_A_2_.csv /lustre/isaac/scratch/gjones39/ANO-RCC-VTZP/ozone_171.25/GMJ_e2_A_2_.csv

>>> END FOREACH

>>> EXPORT i = C

>>> IF (-FILE GMJ_e2_${i}_${j}_.csv)

>>> COPY /lustre/isaac/scratch/gjones39/ANO-RCC-VTZP/ozone_171.25/3193835/GMJ_RHS_C_2_.csv /lustre/isaac/scratch/gjones39/ANO-RCC-VTZP/ozone_171.25/GMJ_RHS_C_2_.csv

>>> COPY /lustre/isaac/scratch/gjones39/ANO-RCC-VTZP/ozone_171.25/3193835/GMJ_IVECW_C_2_.csv /lustre/isaac/scratch/gjones39/ANO-RCC-VTZP/ozone_171.25/GMJ_IVECW_C_2_.csv

>>> COPY /lustre/isaac/scratch/gjones39/ANO-RCC-VTZP/ozone_171.25/3193835/GMJ_IVECX_C_2_.csv /lustre/isaac/scratch/gjones39/ANO-RCC-VTZP/ozone_171.25/GMJ_IVECX_C_2_.csv

>>> COPY /lustre/isaac/scratch/gjones39/ANO-RCC-VTZP/ozone_171.25/3193835/GMJ_IVECC2_C_2_.csv /lustre/isaac/scratch/gjones39/ANO-RCC-VTZP/ozone_171.25/GMJ_IVECC2_C_2_.csv

>>> COPY /lustre/isaac/scratch/gjones39/ANO-RCC-VTZP/ozone_171.25/3193835/GMJ_e2_C_2_.csv /lustre/isaac/scratch/gjones39/ANO-RCC-VTZP/ozone_171.25/GMJ_e2_C_2_.csv

>>> END FOREACH

>>> EXPORT i = D

>>> IF (-FILE GMJ_e2_${i}_${j}_.csv)

>>> COPY /lustre/isaac/scratch/gjones39/ANO-RCC-VTZP/ozone_171.25/3193835/GMJ_RHS_D_2_.csv /lustre/isaac/scratch/gjones39/ANO-RCC-VTZP/ozone_171.25/GMJ_RHS_D_2_.csv

>>> COPY /lustre/isaac/scratch/gjones39/ANO-RCC-VTZP/ozone_171.25/3193835/GMJ_IVECW_D_2_.csv /lustre/isaac/scratch/gjones39/ANO-RCC-VTZP/ozone_171.25/GMJ_IVECW_D_2_.csv

>>> COPY /lustre/isaac/scratch/gjones39/ANO-RCC-VTZP/ozone_171.25/3193835/GMJ_IVECX_D_2_.csv /lustre/isaac/scratch/gjones39/ANO-RCC-VTZP/ozone_171.25/GMJ_IVECX_D_2_.csv

>>> COPY /lustre/isaac/scratch/gjones39/ANO-RCC-VTZP/ozone_171.25/3193835/GMJ_IVECC2_D_2_.csv /lustre/isaac/scratch/gjones39/ANO-RCC-VTZP/ozone_171.25/GMJ_IVECC2_D_2_.csv

>>> COPY /lustre/isaac/scratch/gjones39/ANO-RCC-VTZP/ozone_171.25/3193835/GMJ_e2_D_2_.csv /lustre/isaac/scratch/gjones39/ANO-RCC-VTZP/ozone_171.25/GMJ_e2_D_2_.csv

>>> END FOREACH

>>> END FOREACH

>>> EXPORT j = 3

>>> EXPORT i = A

>>> IF (-FILE GMJ_e2_${i}_${j}_.csv)

>>> COPY /lustre/isaac/scratch/gjones39/ANO-RCC-VTZP/ozone_171.25/3193835/GMJ_RHS_A_3_.csv /lustre/isaac/scratch/gjones39/ANO-RCC-VTZP/ozone_171.25/GMJ_RHS_A_3_.csv

>>> COPY /lustre/isaac/scratch/gjones39/ANO-RCC-VTZP/ozone_171.25/3193835/GMJ_IVECW_A_3_.csv /lustre/isaac/scratch/gjones39/ANO-RCC-VTZP/ozone_171.25/GMJ_IVECW_A_3_.csv

>>> COPY /lustre/isaac/scratch/gjones39/ANO-RCC-VTZP/ozone_171.25/3193835/GMJ_IVECX_A_3_.csv /lustre/isaac/scratch/gjones39/ANO-RCC-VTZP/ozone_171.25/GMJ_IVECX_A_3_.csv

>>> COPY /lustre/isaac/scratch/gjones39/ANO-RCC-VTZP/ozone_171.25/3193835/GMJ_IVECC2_A_3_.csv /lustre/isaac/scratch/gjones39/ANO-RCC-VTZP/ozone_171.25/GMJ_IVECC2_A_3_.csv

>>> COPY /lustre/isaac/scratch/gjones39/ANO-RCC-VTZP/ozone_171.25/3193835/GMJ_e2_A_3_.csv /lustre/isaac/scratch/gjones39/ANO-RCC-VTZP/ozone_171.25/GMJ_e2_A_3_.csv

>>> END FOREACH

>>> EXPORT i = C

>>> IF (-FILE GMJ_e2_${i}_${j}_.csv)

>>> COPY /lustre/isaac/scratch/gjones39/ANO-RCC-VTZP/ozone_171.25/3193835/GMJ_RHS_C_3_.csv /lustre/isaac/scratch/gjones39/ANO-RCC-VTZP/ozone_171.25/GMJ_RHS_C_3_.csv

>>> COPY /lustre/isaac/scratch/gjones39/ANO-RCC-VTZP/ozone_171.25/3193835/GMJ_IVECW_C_3_.csv /lustre/isaac/scratch/gjones39/ANO-RCC-VTZP/ozone_171.25/GMJ_IVECW_C_3_.csv

>>> COPY /lustre/isaac/scratch/gjones39/ANO-RCC-VTZP/ozone_171.25/3193835/GMJ_IVECX_C_3_.csv /lustre/isaac/scratch/gjones39/ANO-RCC-VTZP/ozone_171.25/GMJ_IVECX_C_3_.csv

>>> COPY /lustre/isaac/scratch/gjones39/ANO-RCC-VTZP/ozone_171.25/3193835/GMJ_IVECC2_C_3_.csv /lustre/isaac/scratch/gjones39/ANO-RCC-VTZP/ozone_171.25/GMJ_IVECC2_C_3_.csv

>>> COPY /lustre/isaac/scratch/gjones39/ANO-RCC-VTZP/ozone_171.25/3193835/GMJ_e2_C_3_.csv /lustre/isaac/scratch/gjones39/ANO-RCC-VTZP/ozone_171.25/GMJ_e2_C_3_.csv

>>> END FOREACH

>>> EXPORT i = D

>>> IF (-FILE GMJ_e2_${i}_${j}_.csv)

>>> COPY /lustre/isaac/scratch/gjones39/ANO-RCC-VTZP/ozone_171.25/3193835/GMJ_RHS_D_3_.csv /lustre/isaac/scratch/gjones39/ANO-RCC-VTZP/ozone_171.25/GMJ_RHS_D_3_.csv

>>> COPY /lustre/isaac/scratch/gjones39/ANO-RCC-VTZP/ozone_171.25/3193835/GMJ_IVECW_D_3_.csv /lustre/isaac/scratch/gjones39/ANO-RCC-VTZP/ozone_171.25/GMJ_IVECW_D_3_.csv

>>> COPY /lustre/isaac/scratch/gjones39/ANO-RCC-VTZP/ozone_171.25/3193835/GMJ_IVECX_D_3_.csv /lustre/isaac/scratch/gjones39/ANO-RCC-VTZP/ozone_171.25/GMJ_IVECX_D_3_.csv

>>> COPY /lustre/isaac/scratch/gjones39/ANO-RCC-VTZP/ozone_171.25/3193835/GMJ_IVECC2_D_3_.csv /lustre/isaac/scratch/gjones39/ANO-RCC-VTZP/ozone_171.25/GMJ_IVECC2_D_3_.csv

>>> COPY /lustre/isaac/scratch/gjones39/ANO-RCC-VTZP/ozone_171.25/3193835/GMJ_e2_D_3_.csv /lustre/isaac/scratch/gjones39/ANO-RCC-VTZP/ozone_171.25/GMJ_e2_D_3_.csv

>>> END FOREACH

>>> END FOREACH

    Timing: Wall=113.31 User=44.17 System=20.42
*******************************************************************************************
*** WorkDir at /lustre/isaac/scratch/gjones39/ANO-RCC-VTZP/ozone_171.25/3193835 cleaned ***
*******************************************************************************************
