[Molden Format]
[N_Atoms]
                     2
[Atoms] (AU)
BE1         1      4           0.00000000      0.00000000      0.00000000
BE2         2      4           0.00000000      0.00000000      5.10226054
[Charge] (Mulliken)
  3.463895836830488E-014
 -4.707345624410664E-014
[GTO] (AU)
   1
   s  14
  2.262859900E+04  8.443999941E-05
  3.372318100E+03  4.601499968E-04
  7.603504000E+02  2.285389984E-03
  2.117404800E+02  9.648129932E-03
  6.722346800E+01  3.494469975E-02
  2.337217700E+01  1.061099893E-01
  8.721373000E+00  2.458240383E-01
  3.468091000E+00  3.862428773E-01
  1.452144000E+00  3.105526078E-01
  6.086150000E-01  6.415933955E-02
  2.576860000E-01 -2.265049984E-03
  1.041760000E-01 -5.217499963E-04
  4.242700000E-02 -8.757499938E-04
  1.484900000E-02  1.242199991E-04
   s  14
  2.262859900E+04 -1.586999994E-05
  3.372318100E+03 -8.656999968E-05
  7.603504000E+02 -4.302199984E-04
  2.117404800E+02 -1.825079993E-03
  6.722346800E+01 -6.682749976E-03
  2.337217700E+01 -2.095119992E-02
  8.721373000E+00 -5.200308981E-02
  3.468091000E+00 -9.849176964E-02
  1.452144000E+00 -1.355800695E-01
  6.086150000E-01 -6.429875976E-02
  2.576860000E-01  3.125414989E-01
  1.041760000E-01  6.270468577E-01
  4.242700000E-02  2.110231492E-01
  1.484900000E-02 -4.104669985E-03
   p   9
  3.371018400E+01  1.069960000E-03
  8.057649500E+00  6.828550001E-03
  2.836471400E+00  2.119065000E-02
  1.099965700E+00  5.843696001E-02
  4.433964000E-01  2.020920800E-01
  1.822264000E-01  4.582953101E-01
  7.572410000E-02  3.691239601E-01
  3.168540000E-02  6.611471001E-02
  1.108990000E-02  1.405160000E-03
 
   2
   s  14
  2.262859900E+04  8.443999941E-05
  3.372318100E+03  4.601499968E-04
  7.603504000E+02  2.285389984E-03
  2.117404800E+02  9.648129932E-03
  6.722346800E+01  3.494469975E-02
  2.337217700E+01  1.061099893E-01
  8.721373000E+00  2.458240383E-01
  3.468091000E+00  3.862428773E-01
  1.452144000E+00  3.105526078E-01
  6.086150000E-01  6.415933955E-02
  2.576860000E-01 -2.265049984E-03
  1.041760000E-01 -5.217499963E-04
  4.242700000E-02 -8.757499938E-04
  1.484900000E-02  1.242199991E-04
   s  14
  2.262859900E+04 -1.586999994E-05
  3.372318100E+03 -8.656999968E-05
  7.603504000E+02 -4.302199984E-04
  2.117404800E+02 -1.825079993E-03
  6.722346800E+01 -6.682749976E-03
  2.337217700E+01 -2.095119992E-02
  8.721373000E+00 -5.200308981E-02
  3.468091000E+00 -9.849176964E-02
  1.452144000E+00 -1.355800695E-01
  6.086150000E-01 -6.429875976E-02
  2.576860000E-01  3.125414989E-01
  1.041760000E-01  6.270468577E-01
  4.242700000E-02  2.110231492E-01
  1.484900000E-02 -4.104669985E-03
   p   9
  3.371018400E+01  1.069960000E-03
  8.057649500E+00  6.828550001E-03
  2.836471400E+00  2.119065000E-02
  1.099965700E+00  5.843696001E-02
  4.433964000E-01  2.020920800E-01
  1.822264000E-01  4.582953101E-01
  7.572410000E-02  3.691239601E-01
  3.168540000E-02  6.611471001E-02
  1.108990000E-02  1.405160000E-03
 
[MO]
Sym=     1a  
Ene=    -4.7093
Spin= Alpha
Occup=    1.00000
   1         0.70709116
   2         0.00161075
   3        -0.00000000
   4        -0.00000000
   5         0.00025089
   6         0.70709080
   7         0.00161075
   8        -0.00000000
   9         0.00000000
  10        -0.00025089
Sym=     1a  
Ene=    -4.7093
Spin= Beta
Occup=    1.00000
   1         0.70709116
   2         0.00161075
   3        -0.00000000
   4        -0.00000000
   5         0.00025089
   6         0.70709080
   7         0.00161075
   8        -0.00000000
   9         0.00000000
  10        -0.00025089
Sym=     2a  
Ene=    -4.7093
Spin= Alpha
Occup=    1.00000
   1        -0.70711932
   2        -0.00154430
   3        -0.00000000
   4        -0.00000000
   5        -0.00029564
   6         0.70711969
   7         0.00154430
   8        -0.00000000
   9         0.00000000
  10        -0.00029564
Sym=     2a  
Ene=    -4.7093
Spin= Beta
Occup=    1.00000
   1        -0.70711932
   2        -0.00154430
   3        -0.00000000
   4        -0.00000000
   5        -0.00029564
   6         0.70711969
   7         0.00154430
   8        -0.00000000
   9         0.00000000
  10        -0.00029564
Sym=     3a  
Ene=    -0.3682
Spin= Alpha
Occup=    1.00000
   1        -0.01878241
   2         0.59417355
   3        -0.00000000
   4        -0.00000000
   5         0.08461430
   6        -0.01878241
   7         0.59417355
   8        -0.00000000
   9         0.00000000
  10        -0.08461430
Sym=     3a  
Ene=    -0.3682
Spin= Beta
Occup=    1.00000
   1        -0.01878241
   2         0.59417355
   3        -0.00000000
   4        -0.00000000
   5         0.08461430
   6        -0.01878241
   7         0.59417355
   8        -0.00000000
   9         0.00000000
  10        -0.08461430
Sym=     4a  
Ene=    -0.2470
Spin= Alpha
Occup=    1.00000
   1        -0.01059040
   2        -0.77423218
   3        -0.00000000
   4        -0.00000000
   5         0.11641135
   6         0.01059040
   7         0.77423218
   8        -0.00000000
   9         0.00000000
  10         0.11641135
Sym=     4a  
Ene=    -0.2470
Spin= Beta
Occup=    1.00000
   1        -0.01059040
   2        -0.77423218
   3        -0.00000000
   4        -0.00000000
   5         0.11641135
   6         0.01059040
   7         0.77423218
   8        -0.00000000
   9         0.00000000
  10         0.11641135
Sym=     5a  
Ene=     0.0530
Spin= Alpha
Occup=    0.00000
   1         0.02305626
   2         0.25812916
   3         0.00000000
   4        -0.00000000
   5        -0.63604566
   6         0.02305626
   7         0.25812916
   8         0.00000000
   9        -0.00000000
  10         0.63604566
Sym=     5a  
Ene=     0.0530
Spin= Beta
Occup=    0.00000
   1         0.02305626
   2         0.25812916
   3         0.00000000
   4        -0.00000000
   5        -0.63604566
   6         0.02305626
   7         0.25812916
   8         0.00000000
   9        -0.00000000
  10         0.63604566
Sym=     6a  
Ene=     0.0664
Spin= Alpha
Occup=    0.00000
   1        -0.00000000
   2        -0.00000000
   3         0.53522647
   4         0.36284940
   5         0.00000000
   6        -0.00000000
   7        -0.00000000
   8         0.53522647
   9         0.36284940
  10        -0.00000000
Sym=     6a  
Ene=     0.0664
Spin= Beta
Occup=    0.00000
   1        -0.00000000
   2        -0.00000000
   3         0.53522647
   4         0.36284940
   5         0.00000000
   6        -0.00000000
   7        -0.00000000
   8         0.53522647
   9         0.36284940
  10        -0.00000000
Sym=     7a  
Ene=     0.0664
Spin= Alpha
Occup=    0.00000
   1         0.00000000
   2         0.00000000
   3        -0.36284940
   4         0.53522647
   5        -0.00000000
   6         0.00000000
   7         0.00000000
   8        -0.36284940
   9         0.53522647
  10         0.00000000
Sym=     7a  
Ene=     0.0664
Spin= Beta
Occup=    0.00000
   1         0.00000000
   2         0.00000000
   3        -0.36284940
   4         0.53522647
   5        -0.00000000
   6         0.00000000
   7         0.00000000
   8        -0.36284940
   9         0.53522647
  10         0.00000000
Sym=     8a  
Ene=     0.1486
Spin= Alpha
Occup=    0.00000
   1         0.00000000
   2         0.00000000
   3        -0.77407255
   4        -0.15018106
   5        -0.00000000
   6         0.00000000
   7         0.00000000
   8         0.77407255
   9         0.15018106
  10         0.00000000
Sym=     8a  
Ene=     0.1486
Spin= Beta
Occup=    0.00000
   1         0.00000000
   2         0.00000000
   3        -0.77407255
   4        -0.15018106
   5        -0.00000000
   6         0.00000000
   7         0.00000000
   8         0.77407255
   9         0.15018106
  10         0.00000000
Sym=     9a  
Ene=     0.1486
Spin= Alpha
Occup=    0.00000
   1        -0.00000000
   2        -0.00000000
   3         0.15018106
   4        -0.77407255
   5         0.00000000
   6        -0.00000000
   7        -0.00000000
   8        -0.15018106
   9         0.77407255
  10        -0.00000000
Sym=     9a  
Ene=     0.1486
Spin= Beta
Occup=    0.00000
   1        -0.00000000
   2        -0.00000000
   3         0.15018106
   4        -0.77407255
   5         0.00000000
   6        -0.00000000
   7        -0.00000000
   8        -0.15018106
   9         0.77407255
  10        -0.00000000
Sym=    10a  
Ene=     0.2794
Spin= Alpha
Occup=    0.00000
   1         0.05746138
   2         0.59735384
   3         0.00000000
   4        -0.00000000
   5         0.99093452
   6        -0.05746138
   7        -0.59735384
   8         0.00000000
   9         0.00000000
  10         0.99093452
Sym=    10a  
Ene=     0.2794
Spin= Beta
Occup=    0.00000
   1         0.05746138
   2         0.59735384
   3         0.00000000
   4        -0.00000000
   5         0.99093452
   6        -0.05746138
   7        -0.59735384
   8         0.00000000
   9         0.00000000
  10         0.99093452
