[Molden Format]
[N_Atoms]
                     2
[Atoms] (AU)
BE1         1      4           0.00000000      0.00000000      0.00000000
BE2         2      4           0.00000000      0.00000000      5.10226054
[Charge] (Mulliken)
 -8.096722847739102E-008
  8.096722581285576E-008
[GTO] (AU)
   1
   s  14
  2.262859900E+04  8.443999941E-05
  3.372318100E+03  4.601499968E-04
  7.603504000E+02  2.285389984E-03
  2.117404800E+02  9.648129932E-03
  6.722346800E+01  3.494469975E-02
  2.337217700E+01  1.061099893E-01
  8.721373000E+00  2.458240383E-01
  3.468091000E+00  3.862428773E-01
  1.452144000E+00  3.105526078E-01
  6.086150000E-01  6.415933955E-02
  2.576860000E-01 -2.265049984E-03
  1.041760000E-01 -5.217499963E-04
  4.242700000E-02 -8.757499938E-04
  1.484900000E-02  1.242199991E-04
   s  14
  2.262859900E+04 -1.586999994E-05
  3.372318100E+03 -8.656999968E-05
  7.603504000E+02 -4.302199984E-04
  2.117404800E+02 -1.825079993E-03
  6.722346800E+01 -6.682749976E-03
  2.337217700E+01 -2.095119992E-02
  8.721373000E+00 -5.200308981E-02
  3.468091000E+00 -9.849176964E-02
  1.452144000E+00 -1.355800695E-01
  6.086150000E-01 -6.429875976E-02
  2.576860000E-01  3.125414989E-01
  1.041760000E-01  6.270468577E-01
  4.242700000E-02  2.110231492E-01
  1.484900000E-02 -4.104669985E-03
   p   9
  3.371018400E+01  1.069960000E-03
  8.057649500E+00  6.828550001E-03
  2.836471400E+00  2.119065000E-02
  1.099965700E+00  5.843696001E-02
  4.433964000E-01  2.020920800E-01
  1.822264000E-01  4.582953101E-01
  7.572410000E-02  3.691239601E-01
  3.168540000E-02  6.611471001E-02
  1.108990000E-02  1.405160000E-03
 
   2
   s  14
  2.262859900E+04  8.443999941E-05
  3.372318100E+03  4.601499968E-04
  7.603504000E+02  2.285389984E-03
  2.117404800E+02  9.648129932E-03
  6.722346800E+01  3.494469975E-02
  2.337217700E+01  1.061099893E-01
  8.721373000E+00  2.458240383E-01
  3.468091000E+00  3.862428773E-01
  1.452144000E+00  3.105526078E-01
  6.086150000E-01  6.415933955E-02
  2.576860000E-01 -2.265049984E-03
  1.041760000E-01 -5.217499963E-04
  4.242700000E-02 -8.757499938E-04
  1.484900000E-02  1.242199991E-04
   s  14
  2.262859900E+04 -1.586999994E-05
  3.372318100E+03 -8.656999968E-05
  7.603504000E+02 -4.302199984E-04
  2.117404800E+02 -1.825079993E-03
  6.722346800E+01 -6.682749976E-03
  2.337217700E+01 -2.095119992E-02
  8.721373000E+00 -5.200308981E-02
  3.468091000E+00 -9.849176964E-02
  1.452144000E+00 -1.355800695E-01
  6.086150000E-01 -6.429875976E-02
  2.576860000E-01  3.125414989E-01
  1.041760000E-01  6.270468577E-01
  4.242700000E-02  2.110231492E-01
  1.484900000E-02 -4.104669985E-03
   p   9
  3.371018400E+01  1.069960000E-03
  8.057649500E+00  6.828550001E-03
  2.836471400E+00  2.119065000E-02
  1.099965700E+00  5.843696001E-02
  4.433964000E-01  2.020920800E-01
  1.822264000E-01  4.582953101E-01
  7.572410000E-02  3.691239601E-01
  3.168540000E-02  6.611471001E-02
  1.108990000E-02  1.405160000E-03
 
[MO]
Sym=     1a  
Ene=    -4.7093
Spin= Alpha
Occup=    2.00000
   1         0.70700396
   2         0.00162679
   3        -0.00000000
   4         0.00000000
   5         0.00022475
   6         0.70717962
   7         0.00162598
   8         0.00000000
   9        -0.00000000
  10        -0.00022498
Sym=     2a  
Ene=    -4.7091
Spin= Alpha
Occup=    2.00000
   1        -0.70711095
   2         0.00396727
   3         0.00000000
   4        -0.00000000
   5        -0.00105117
   6         0.70693527
   7        -0.00396761
   8         0.00000000
   9        -0.00000000
  10        -0.00105112
Sym=     3a  
Ene=    -0.3669
Spin= Alpha
Occup=    2.00000
   1        -0.01878185
   2         0.59423891
   3        -0.00000000
   4        -0.00000000
   5         0.08443971
   6        -0.01878169
   7         0.59425048
   8         0.00000000
   9         0.00000000
  10        -0.08443808
Sym=     4a  
Ene=    -0.2434
Spin= Alpha
Occup=    1.96205
   1        -0.01578781
   2        -0.77630970
   3        -0.00000000
   4         0.00000000
   5         0.11294428
   6         0.01578792
   7         0.77630082
   8        -0.00000000
   9         0.00000000
  10         0.11294543
Sym=     5a  
Ene=     0.0000
Spin= Alpha
Occup=    0.03795
   1        -0.00000000
   2        -0.00000000
   3         0.62074491
   4         0.18113623
   5        -0.00000000
   6         0.00000000
   7         0.00000000
   8         0.62073375
   9         0.18113298
  10        -0.00000000
Sym=     6a  
Ene=     0.0539
Spin= Alpha
Occup=    0.00000
   1         0.02303175
   2         0.25796521
   3         0.00000000
   4        -0.00000000
   5        -0.63606889
   6         0.02303175
   7         0.25796525
   8         0.00000000
   9        -0.00000000
  10         0.63606907
Sym=     7a  
Ene=     0.0669
Spin= Alpha
Occup=    0.00000
   1        -0.00000000
   2         0.00000000
   3        -0.18113455
   4         0.62073914
   5        -0.00000000
   6         0.00000000
   7        -0.00000000
   8        -0.18113466
   9         0.62073952
  10         0.00000000
Sym=     8a  
Ene=     0.1481
Spin= Alpha
Occup=    0.00000
   1         0.00000000
   2        -0.00000000
   3        -0.75693369
   4        -0.22087675
   5        -0.00000000
   6         0.00000000
   7        -0.00000000
   8         0.75694284
   9         0.22087942
  10         0.00000000
Sym=     9a  
Ene=     0.1490
Spin= Alpha
Occup=    0.00000
   1         0.00000000
   2        -0.00000000
   3         0.22087813
   4        -0.75693842
   5         0.00000000
   6         0.00000000
   7        -0.00000000
   8        -0.22087804
   9         0.75693811
  10        -0.00000000
Sym=    10a  
Ene=     0.2800
Spin= Alpha
Occup=    0.00000
   1        -0.05745449
   2        -0.59464599
   3        -0.00000000
   4        -0.00000000
   5        -0.99133514
   6         0.05745450
   7         0.59464600
   8        -0.00000000
   9        -0.00000000
  10        -0.99133504
