[Molden Format]
[N_Atoms]
                     2
[Atoms] (AU)
BE1         1      4           0.00000000      0.00000000      0.00000000
BE2         2      4           0.00000000      0.00000000      5.10226054
[Charge] (Mulliken)
  0.999999999999998     
  0.999999999999995     
[GTO] (AU)
   1
   s  14
  2.262859900E+04  8.443999941E-05
  3.372318100E+03  4.601499968E-04
  7.603504000E+02  2.285389984E-03
  2.117404800E+02  9.648129932E-03
  6.722346800E+01  3.494469975E-02
  2.337217700E+01  1.061099893E-01
  8.721373000E+00  2.458240383E-01
  3.468091000E+00  3.862428773E-01
  1.452144000E+00  3.105526078E-01
  6.086150000E-01  6.415933955E-02
  2.576860000E-01 -2.265049984E-03
  1.041760000E-01 -5.217499963E-04
  4.242700000E-02 -8.757499938E-04
  1.484900000E-02  1.242199991E-04
   s  14
  2.262859900E+04 -1.586999994E-05
  3.372318100E+03 -8.656999968E-05
  7.603504000E+02 -4.302199984E-04
  2.117404800E+02 -1.825079993E-03
  6.722346800E+01 -6.682749976E-03
  2.337217700E+01 -2.095119992E-02
  8.721373000E+00 -5.200308981E-02
  3.468091000E+00 -9.849176964E-02
  1.452144000E+00 -1.355800695E-01
  6.086150000E-01 -6.429875976E-02
  2.576860000E-01  3.125414989E-01
  1.041760000E-01  6.270468577E-01
  4.242700000E-02  2.110231492E-01
  1.484900000E-02 -4.104669985E-03
   p   9
  3.371018400E+01  1.069960000E-03
  8.057649500E+00  6.828550001E-03
  2.836471400E+00  2.119065000E-02
  1.099965700E+00  5.843696001E-02
  4.433964000E-01  2.020920800E-01
  1.822264000E-01  4.582953101E-01
  7.572410000E-02  3.691239601E-01
  3.168540000E-02  6.611471001E-02
  1.108990000E-02  1.405160000E-03
 
   2
   s  14
  2.262859900E+04  8.443999941E-05
  3.372318100E+03  4.601499968E-04
  7.603504000E+02  2.285389984E-03
  2.117404800E+02  9.648129932E-03
  6.722346800E+01  3.494469975E-02
  2.337217700E+01  1.061099893E-01
  8.721373000E+00  2.458240383E-01
  3.468091000E+00  3.862428773E-01
  1.452144000E+00  3.105526078E-01
  6.086150000E-01  6.415933955E-02
  2.576860000E-01 -2.265049984E-03
  1.041760000E-01 -5.217499963E-04
  4.242700000E-02 -8.757499938E-04
  1.484900000E-02  1.242199991E-04
   s  14
  2.262859900E+04 -1.586999994E-05
  3.372318100E+03 -8.656999968E-05
  7.603504000E+02 -4.302199984E-04
  2.117404800E+02 -1.825079993E-03
  6.722346800E+01 -6.682749976E-03
  2.337217700E+01 -2.095119992E-02
  8.721373000E+00 -5.200308981E-02
  3.468091000E+00 -9.849176964E-02
  1.452144000E+00 -1.355800695E-01
  6.086150000E-01 -6.429875976E-02
  2.576860000E-01  3.125414989E-01
  1.041760000E-01  6.270468577E-01
  4.242700000E-02  2.110231492E-01
  1.484900000E-02 -4.104669985E-03
   p   9
  3.371018400E+01  1.069960000E-03
  8.057649500E+00  6.828550001E-03
  2.836471400E+00  2.119065000E-02
  1.099965700E+00  5.843696001E-02
  4.433964000E-01  2.020920800E-01
  1.822264000E-01  4.582953101E-01
  7.572410000E-02  3.691239601E-01
  3.168540000E-02  6.611471001E-02
  1.108990000E-02  1.405160000E-03
 
[MO]
Sym=     1a  
Ene=    -5.3573
Spin= Alpha
Occup=    2.00000
   1        -0.70698711
   2         0.00008485
   3        -0.00000000
   4         0.00000000
   5         0.00183495
   6         0.70698711
   7        -0.00008485
   8        -0.00000000
   9         0.00000000
  10         0.00183495
Sym=     2a  
Ene=    -5.3568
Spin= Alpha
Occup=    2.00000
   1         0.70731984
   2        -0.00388247
   3         0.00000000
   4        -0.00000000
   5        -0.00265656
   6         0.70731984
   7        -0.00388247
   8        -0.00000000
   9         0.00000000
  10         0.00265656
Sym=     3a  
Ene=    -0.8065
Spin= Alpha
Occup=    1.97792
   1        -0.01519556
   2         0.53083275
   3        -0.00000000
   4         0.00000000
   5         0.20960722
   6        -0.01519556
   7         0.53083275
   8         0.00000000
   9        -0.00000000
  10        -0.20960722
Sym=     4a  
Ene=     0.0000
Spin= Alpha
Occup=    0.02208
   1         0.00000000
   2         0.00000007
   3        -0.07643245
   4         0.64209434
   5         0.00000003
   6        -0.00000000
   7        -0.00000007
   8        -0.07643245
   9         0.64209434
  10         0.00000003
Sym=     5a  
Ene=    -0.4922
Spin= Alpha
Occup=    0.00000
   1         0.00935032
   2         0.75853624
   3         0.00000000
   4        -0.00000004
   5        -0.14198177
   6        -0.00935032
   7        -0.75853624
   8         0.00000000
   9        -0.00000004
  10        -0.14198177
Sym=     6a  
Ene=    -0.3986
Spin= Alpha
Occup=    0.00000
   1         0.01815930
   2         0.37131790
   3         0.00000000
   4        -0.00000000
   5        -0.60644166
   6         0.01815930
   7         0.37131790
   8        -0.00000000
   9         0.00000000
  10         0.60644166
Sym=     7a  
Ene=    -0.3885
Spin= Alpha
Occup=    0.00000
   1         0.00000000
   2        -0.00000000
   3         0.64209434
   4         0.07643245
   5         0.00000000
   6        -0.00000000
   7        -0.00000000
   8         0.64209434
   9         0.07643245
  10        -0.00000000
Sym=     8a  
Ene=    -0.3169
Spin= Alpha
Occup=    0.00000
   1        -0.00000000
   2         0.00000000
   3         0.09320280
   4        -0.78297886
   5         0.00000000
   6        -0.00000000
   7         0.00000000
   8        -0.09320280
   9         0.78297886
  10        -0.00000000
Sym=     9a  
Ene=    -0.3164
Spin= Alpha
Occup=    0.00000
   1        -0.00000000
   2        -0.00000000
   3        -0.78297886
   4        -0.09320280
   5        -0.00000000
   6         0.00000000
   7        -0.00000000
   8         0.78297886
   9         0.09320280
  10         0.00000000
Sym=    10a  
Ene=    -0.2141
Spin= Alpha
Occup=    0.00000
   1        -0.05927697
   2        -0.61716466
   3        -0.00000000
   4         0.00000003
   5        -0.98759340
   6         0.05927697
   7         0.61716466
   8        -0.00000000
   9         0.00000003
  10        -0.98759340
