   This run of MOLCAS is using the pymolcas driver

                             OPE
                             OPE          NMOL  CASOP  ENMOLC A   SO
                 OPE        NMOLC        AS  OP EN  MO LC     AS  OP
                OPENM       OL CA        SO  PE NM  OL CA     SOP EN
                OP EN      MO   LC       AS  OP ENMOL  CASO   PENMOL
                OP  EN     MO   LC       AS  OP EN     MO     LC ASO
               OP   E  NMOL  C  AS       OP  EN MO     LC     AS  OP
               OP  E   NMO   LC AS        OPEN  MO     LCASOP EN   M
               O  PEN   MO  LCA  SO
            OPE   NMO   L   CAS    OP
        OPENMOL  CASOP     ENMOL   CASOPE
     OPENMOLCA   SOPENMOLCASOPEN   MOLCASOPE
    OPENMOLCAS   OP           EN   MOL    CAS
    OPENMOLCAS       OP  ENM        O     LCA
    OPENMOLCAS    OPEN  MOLCASO     P  E  NMO
    OPENMOLCAS     OP               E  N  MOL
    OPENMOLCA   SO           PENM   O  L  CAS    OPEN    MO    LCAS
    OPENMOLCA   SOP           ENM   O  L  CAS   OP  EN  MOLC  AS   O
    OPENMOLCA   SOPE           NM      O  LCA   S      OP  EN MO
    OPENMOLC                AS         O  PEN   M      OL  CA  SOPE
    OPENMO        LCASOPE  NMOL        C  ASO   P      ENMOLC     AS
    OPE     NMO      LCA  SO     P     E   NM   OL  CA SO  PE N   MO
          OPENMOLCA            SOPE   NMO        LCAS  O    P  ENMO
     OPENMOLCASOPENMOLCASOPENMOLCASOPENMOLCA
        OPENMOLCASOPENMOLCASOPENMOLCASOPE
            OPENMOLCASOPENMOLCASOPENM
               OPENMOLCASOPENMOLCA        version: f37762c57
                   OPENMOLCASO
                       OPE                tag:

 OpenMolcas is free software; you can redistribute it and/or modify it
 under the terms of the GNU Lesser General Public License version 2.1.
 OpenMolcas is distributed in the hope that it will be useful, but it
 is provided "as is" and without any express or implied warranties.
 For more details see the full text of the license in the file
 LICENSE or in <http://www.gnu.org/licenses/>.

                 Copyright (C) The OpenMolcas Authors
           For the author list and the recommended citation,
                   consult the file CONTRIBUTORS.md

           *************************************************
           * pymolcas version py2.28                       *
           *   build c4a6d18ded8cb6cad61d2372a9abd97c      *
           *   (after the EMIL interpreter by V. Veryazov) *
           *************************************************

configuration info
------------------
C Compiler ID: Intel
C flags: -std=gnu99 -gcc-sys
Fortran Compiler ID: IntelLLVM
Fortran flags: -standard-semantics -fltconsistency -fpp -i8 -heap-arrays
Definitions: _MOLCAS_;_I8_;_LINUX_
Parallel: OFF (GA=OFF)


   -------------------------------------------------------------------------------------------
  |
  |              Project: ozone_136.00
  |       Submitted from: /home/grierjones/DDCASPT2/ozone/multistate/ANO-RCC-VTZP/ozone_136.00
  |         Scratch area: /tmp/ozone_136.00
  |      Save outputs to: /home/grierjones/DDCASPT2/ozone/multistate/ANO-RCC-VTZP/ozone_136.00
  |               Molcas: /home/grierjones/Test/build
  |
  | Scratch area is empty
  |
  |       MOLCAS_DRIVER = /usr/local/pymolcas
  | MOLCAS_KEEP_WORKDIR = NO
  |  MOLCAS_NEW_WORKDIR = YES
  |       MOLCAS_NPROCS = 1
  |        MOLCAS_PRINT = NORMAL
  |       MOLCAS_SOURCE = /home/grierjones/Test
  |    MOLCAS_STRUCTURE = 0
  |
   -------------------------------------------------------------------------------------------

++ ---------   Input file   ---------

&GATEWAY
coord=ozone_136.00.xyz
Basis = ANO-RCC-VTZP
Group = nosymm
End of Input

&SEWARD
End of Input

&SCF
FileOrb
/home/grierjones/DDCASPT2/ozone/multistate/ANO-RCC-VTZP/ozone_135.75/ozone_135.75.ScfOrb

>>> COPY $WorkDir/ozone_136.00.scf.h5 $CurrDir/

&RASSCF
Title= RASSCF
FileOrb
/home/grierjones/DDCASPT2/ozone/multistate/ANO-RCC-VTZP/ozone_135.75/ozone_135.75.RasOrb
CIROOT
3 3 1
NACTEL
4 0 0
Inactive
10
RAS2
3
Symmetry
1
Spin
1
orblisting
all

>>> COPY $WorkDir/ozone_136.00.rasscf.h5 $CurrDir/

>>> COPY $WorkDir/GMJ_Fock_MO.csv $CurrDir/ozone_136.00.GMJ_Fock_MO.csv

&MOTRA
Frozen=0
LUMORB

>>> COPY $WorkDir/GMJ_one_int_indx.csv $CurrDir/ozone_136.00.GMJ_one_int_indx.csv

>>> COPY $WorkDir/GMJ_one_int.csv $CurrDir/ozone_136.00.GMJ_one_int.csv

>>> COPY $WorkDir/GMJ_two_int_indx.csv $CurrDir/ozone_136.00.GMJ_two_int_indx.csv

>>> COPY $WorkDir/GMJ_two_int.csv $CurrDir/ozone_136.00.GMJ_two_int.csv

&CASPT2
Frozen
0

MAXITER
50

>>> FOREACH k IN (1,2,3)

  >>> FOREACH i IN (B,E,F,G,H)

    >>> FOREACH j IN (P,M)

      >>> IF (-FILE GMJ_e2_${i}_${j}_${k}_.csv)

        >>> COPY $WorkDir/GMJ_RHS_${i}_${j}_${k}_.csv $CurrDir/GMJ_RHS_${i}_${j}_${k}_.csv

        >>> COPY $WorkDir/GMJ_IVECW_${i}_${j}_${k}_.csv $CurrDir/GMJ_IVECW_${i}_${j}_${k}_.csv

        >>> COPY $WorkDir/GMJ_IVECX_${i}_${j}_${k}_.csv $CurrDir/GMJ_IVECX_${i}_${j}_${k}_.csv

        >>> COPY $WorkDir/GMJ_IVECC2_${i}_${j}_${k}_.csv $CurrDir/GMJ_IVECC2_${i}_${j}_${k}_.csv

        >>> COPY $WorkDir/GMJ_e2_${i}_${j}_${k}_.csv $CurrDir/GMJ_e2_${i}_${j}_${k}_.csv

      >>> END IF

    >>> END FOREACH

  >>> END FOREACH

>>> END FOREACH

>>> FOREACH j IN (1,2,3)

  >>> FOREACH i IN (A,C,D)

    >>> IF (-FILE GMJ_e2_${i}_${j}_.csv)

      >>> COPY $WorkDir/GMJ_RHS_${i}_${j}_.csv $CurrDir/GMJ_RHS_${i}_${j}_.csv

      >>> COPY $WorkDir/GMJ_IVECW_${i}_${j}_.csv $CurrDir/GMJ_IVECW_${i}_${j}_.csv

      >>> COPY $WorkDir/GMJ_IVECX_${i}_${j}_.csv $CurrDir/GMJ_IVECX_${i}_${j}_.csv

      >>> COPY $WorkDir/GMJ_IVECC2_${i}_${j}_.csv $CurrDir/GMJ_IVECC2_${i}_${j}_.csv

      >>> COPY $WorkDir/GMJ_e2_${i}_${j}_.csv $CurrDir/GMJ_e2_${i}_${j}_.csv

    >>> END IF

  >>> END FOREACH

>>> END FOREACH

-- ----------------------------------

--- Start Module: gateway at Fri Apr 11 19:09:44 2025 ---
 
()()()()()()()()()()()()()()()()()()()()()()()()()()()()()()()()()()()()()()()()()()()()()()()()()()

                                              &GATEWAY

                                   only a single process is used
                       available to each process: 2.0 GB of memory, 1 thread?
()()()()()()()()()()()()()()()()()()()()()()()()()()()()()()()()()()()()()()()()()()()()()()()()()()
 
 
++    Symmetry information:
      ---------------------
 
                    Character Table for C1 
 
                             E  
                    a        1  x, y, xy, Rz, z, xz, Ry, yz, Rx, I
--
 
 
++    Basis set information:
      ----------------------
 
 
      Basis set label: O.ANO-RCC...4S3P2D1F.
 
      Electronic valence basis set:
      ------------------
      Associated Effective Charge   8.000000 au
      Associated Actual Charge      8.000000 au
      Nuclear Model: Point charge
 
      Shell  nPrim  nBasis  Cartesian Spherical Contaminant
         s      14       4        X                  
         p       9       3        X                  
         d       4       2                 X         
         f       3       1                 X         
--
 
 
++    Molecular structure info:
      -------------------------
 
                    ************************************************ 
                    **** Cartesian Coordinates / Bohr, Angstrom **** 
                    ************************************************ 
 
     Center  Label                x              y              z                     x              y              z
        1      O1               0.904701       2.239214       0.000000              0.478747       1.184941       0.000000
        2      O2               0.000000       0.000000       0.000000              0.000000       0.000000       0.000000
        3      O3               0.904701      -2.239214       0.000000              0.478747      -1.184941       0.000000
 
                    *************************************** 
                    *    InterNuclear Distances / Bohr    * 
                    *************************************** 
 
               1 O1            2 O2            3 O3    
    1 O1       0.000000
    2 O2       2.415070        0.000000
    3 O3       4.478428        2.415070        0.000000
 
                    ******************************************* 
                    *    InterNuclear Distances / Angstrom    * 
                    ******************************************* 
 
               1 O1            2 O2            3 O3    
    1 O1       0.000000
    2 O2       1.278000        0.000000
    3 O3       2.369882        1.278000        0.000000
 
                    ************************************** 
                    *    Valence Bond Angles / Degree    * 
                    ************************************** 
                          Atom centers                 Phi
                      1 O1       2 O2       3 O3       136.00
--
 
 
            Nuclear Potential Energy             67.29126564 au
 
--- Stop Module: gateway at Fri Apr 11 19:09:45 2025 /rc=_RC_ALL_IS_WELL_ ---
*** files: xmldump
    saved to directory /home/grierjones/DDCASPT2/ozone/multistate/ANO-RCC-VTZP/ozone_136.00

--- Start Module: seward at Fri Apr 11 19:09:45 2025 ---
 
()()()()()()()()()()()()()()()()()()()()()()()()()()()()()()()()()()()()()()()()()()()()()()()()()()

                                              &SEWARD

                                   only a single process is used
                       available to each process: 2.0 GB of memory, 1 thread?
()()()()()()()()()()()()()()()()()()()()()()()()()()()()()()()()()()()()()()()()()()()()()()()()()()
 
               SEWARD will generate:
                  Multipole Moment integrals up to order  2
                  Kinetic Energy integrals
                  Nuclear Attraction integrals (point charge)
                  One-Electron Hamiltonian integrals
                  Velocity integrals
                  Relativistic Douglas-Kroll-Hess integrals:
                    - Parametrization         : EXP
                    - DKH order of Hamiltonian: 2
                    - DKH order of Properties : 0
                         - multipole moment operators
                         - electric potential operators
                         - contact operators
                  Atomic mean-field integrals
                  Two-Electron Repulsion integrals
 
                   Integrals are discarded if absolute value <: 0.10E-13
                   Integral cutoff threshold is set to       <: 0.10E-15
 
            Nuclear Potential Energy             67.29126564 au
 
 
      Basis set specifications :
      Symmetry species         a  
      Basis functions           90
 
 
  Input file to MOLDEN was generated!
 
forrtl: warning (525): IEEE_DIVIDE_BY_ZERO is signaling
forrtl: warning (526): IEEE_INVALID is signaling
forrtl: warning (528): IEEE_UNDERFLOW is signaling
--- Stop Module: seward at Fri Apr 11 19:09:47 2025 /rc=_RC_ALL_IS_WELL_ ---
*** files: ozone_136.00.GssOrb ozone_136.00.guessorb.h5 ozone_136.00.guessorb.molden xmldump
    saved to directory /home/grierjones/DDCASPT2/ozone/multistate/ANO-RCC-VTZP/ozone_136.00
--- Module seward spent 2 seconds ---

*** symbolic link created: INPORB -> ozone_136.00.GssOrb
--- Start Module: scf at Fri Apr 11 19:09:47 2025 ---
 
()()()()()()()()()()()()()()()()()()()()()()()()()()()()()()()()()()()()()()()()()()()()()()()()()()

                                                &SCF

                                   only a single process is used
                       available to each process: 2.0 GB of memory, 1 thread?
()()()()()()()()()()()()()()()()()()()()()()()()()()()()()()()()()()()()()()()()()()()()()()()()()()
 
++    Input section:
      --------------
 
      Header of the integral files:
      
       Integrals generated by seward 4.2.0  , Fri Apr 11 19:09:45 2025
 
 
      Cartesian coordinates in Angstrom:
      -----------------------------------------------------
      No.  Label        X            Y            Z        
      -----------------------------------------------------
       1   O1         0.47874700   1.18494100   0.00000000
       2   O2         0.00000000   0.00000000   0.00000000
       3   O3         0.47874700  -1.18494100   0.00000000
      -----------------------------------------------------
      Nuclear repulsion energy =   67.29126564
--
 
++    Orbital specifications:
      -----------------------
 
      Symmetry species               1
                                     a
      Frozen orbitals                0
      Occupied orbitals             12
      Secondary orbitals            78
      Deleted orbitals               0
      Total number of orbitals      90
      Number of basis functions     90
--
 
      Molecular charge                           0.000
 
++    Optimization specifications:
      ----------------------------
 
      SCF Algorithm: Conventional
      Minimized density differences are used
      Number of density matrices in core                5
      Maximum number of NDDO SCF iterations           400
      Maximum number of HF SCF iterations             400
      Threshold for SCF energy change            0.10E-08
      Threshold for density matrix               0.10E-03
      Threshold for Fock matrix                  0.15E-03
      Threshold for linear dependence            0.10E-08
      Threshold at which DIIS is turned on       0.15E+00
      Threshold at which QNR/C2DIIS is turned on 0.75E-01
      Threshold for Norm(delta) (QNR/C2DIIS)     0.20E-04
      DIIS extrapolation of the SCF procedure
      All orbitals punched on: SCFORB
--
 
      Input vectors read from INPORB
      Orbital file label: * SCF orbitals
 
 
++ Convergence information
                                   SCF        iterations: Energy and convergence statistics
 
Iter     Tot. SCF        One-elec.       Two-elec.     Energy      Max Dij or  Max Fij      DNorm      TNorm      AccCon     Time
         Energy          Energy          Energy        Change      Delta Norm                                                in Sec.
   1  -224.493056612  -442.207138896   150.422816642   0.00E+00    0.12E-02*   0.68E-03*    0.75E+01   0.11E+03   None         0.
   2  -224.493061864  -442.206700420   150.422372914  -0.53E-05*   0.60E-03*   0.33E-03*    0.70E-02   0.11E+03   EDIIS        0.
   3  -224.493062871  -442.207428151   150.423099638  -0.10E-05*   0.36E-03*   0.30E-03*    0.10E-02   0.11E+03   c2DIIS       0.
   4  -224.493063222  -442.206682249   150.422353386  -0.35E-06*   0.22E-03*   0.10E-03     0.12E-02   0.11E+03   QNRc2DIIS    0.
   5  -224.493063233  -442.207824799   150.423495924  -0.11E-07*   0.11E-03*   0.12E-03     0.61E-03   0.11E+03   QNRc2DIIS    0.
   6  -224.493063296  -442.207285537   150.422956600  -0.63E-07*   0.72E-04*   0.12E-04     0.54E-04   0.11E+03   QNRc2DIIS    0.
   7  -224.493063300  -442.207212795   150.422883854  -0.41E-08*   0.55E-05    0.11E-05     0.38E-04   0.11E+03   QNRc2DIIS    0.
   8  -224.493063300  -442.207258096   150.422929155  -0.21E-10    0.22E-05    0.14E-05     0.26E-03   0.11E+03   QNRc2DIIS    0.
 
       Convergence after  8 Macro Iterations
--
 
 *****************************************************************************************************************************
 *                                                                                                                           *
 *                                             SCF/KS-DFT Program, Final results                                             *
 *                                                                                                                           *
 *                                                                                                                           *
 *                                                                                                                           *
 *                                                       Final Results                                                       *
 *                                                                                                                           *
 *****************************************************************************************************************************
 
::    Total SCF energy                               -224.4930632999
      One-electron energy                            -442.2072580964
      Two-electron energy                             150.4229291547
      Nuclear repulsion energy                         67.2912656418
      Kinetic energy (interpolated)                   225.0501891949
      Virial theorem                                    0.9975244371
      Total spin, S(S+1)                                0.0000000000
      Total spin, S                                     0.0000000000
      Max non-diagonal density matrix element           0.0000031269
      Max non-diagonal Fock matrix element              0.0000007128
 
 
      All orbitals with orbital energies smaller than  E(LUMO)+0.5 are printed
 
++    Molecular orbitals:
      -------------------
 
      Title: SCF orbitals

      Molecular orbitals for symmetry species 1: a  
 
          Orbital            1         2         3         4         5         6         7         8         9        10    
          Energy          -20.9187  -20.7356  -20.7355   -1.7328   -1.4545   -1.0816   -0.8322   -0.8035   -0.7725   -0.5891
          Occ. No.          2.0000    2.0000    2.0000    2.0000    2.0000    2.0000    2.0000    2.0000    2.0000    2.0000
 
        1 O1     1s         0.0023   -0.6403    0.7667   -0.0130    0.0122    0.0118   -0.0090   -0.0233   -0.0000    0.0076
        2 O1     2s         0.0028    0.0048   -0.0060    0.3391   -0.5639    0.6221   -0.1961   -0.4323    0.0000    0.0757
        3 O1     3s         0.0016    0.0034   -0.0042   -0.0087    0.0200    0.0197   -0.0158   -0.0513   -0.0000    0.0175
        4 O1     4s         0.0003    0.0007   -0.0008   -0.0003    0.0040    0.0033   -0.0032   -0.0109   -0.0000    0.0040
        5 O1     2px       -0.0006   -0.0010    0.0011   -0.0373    0.0491    0.0897    0.2376   -0.2814    0.0000   -0.6035
        6 O1     3px       -0.0005   -0.0010    0.0009    0.0113   -0.0069   -0.0152   -0.0146    0.0246    0.0000   -0.0040
        7 O1     4px       -0.0001    0.0004   -0.0006    0.0023    0.0003    0.0005   -0.0008    0.0013    0.0000    0.0046
        8 O1     2py       -0.0018   -0.0019    0.0028   -0.1137    0.0806    0.1266   -0.2793   -0.3147    0.0000    0.3743
        9 O1     3py       -0.0010   -0.0020    0.0028    0.0132   -0.0171   -0.0212    0.0259    0.0425    0.0000   -0.0055
       10 O1     4py        0.0004    0.0013   -0.0016    0.0011   -0.0037    0.0010    0.0038    0.0037   -0.0000   -0.0029
       11 O1     2pz       -0.0000    0.0000    0.0000   -0.0000   -0.0000    0.0000    0.0000    0.0000    0.3901   -0.0000
       12 O1     3pz       -0.0000   -0.0000   -0.0000   -0.0000   -0.0000    0.0000   -0.0000    0.0000   -0.0166    0.0000
       13 O1     4pz       -0.0000    0.0000    0.0000    0.0000   -0.0000   -0.0000   -0.0000    0.0000   -0.0068    0.0000
       14 O1     3d2-       0.0002    0.0007   -0.0009    0.0117   -0.0122   -0.0110   -0.0067    0.0231   -0.0000    0.0052
       15 O1     4d2-       0.0001    0.0004   -0.0005    0.0010   -0.0014   -0.0007   -0.0005    0.0018   -0.0000    0.0012
       16 O1     3d1-      -0.0000    0.0000    0.0000    0.0000    0.0000   -0.0000    0.0000   -0.0000   -0.0300   -0.0000
       17 O1     4d1-      -0.0000   -0.0000   -0.0000    0.0000   -0.0000    0.0000    0.0000   -0.0000   -0.0050   -0.0000
       18 O1     3d0       -0.0003   -0.0005    0.0006   -0.0105    0.0092    0.0050   -0.0080   -0.0145    0.0000    0.0053
       19 O1     4d0       -0.0001   -0.0004    0.0004   -0.0006    0.0009    0.0000   -0.0008   -0.0008    0.0000    0.0007
       20 O1     3d1+      -0.0000   -0.0000   -0.0000   -0.0000   -0.0000   -0.0000    0.0000   -0.0000   -0.0118    0.0000
       21 O1     4d1+       0.0000   -0.0000   -0.0000   -0.0000   -0.0000   -0.0000   -0.0000   -0.0000   -0.0023    0.0000
       22 O1     3d2+      -0.0004   -0.0008    0.0010   -0.0163    0.0105    0.0080   -0.0249   -0.0169    0.0000    0.0174
       23 O1     4d2+      -0.0002   -0.0003    0.0005   -0.0023    0.0014    0.0011   -0.0026   -0.0012    0.0000    0.0026
       24 O1     4f3-       0.0001    0.0001   -0.0001    0.0031   -0.0020   -0.0001    0.0075    0.0015   -0.0000   -0.0057
       25 O1     4f2-      -0.0000   -0.0000   -0.0000    0.0000   -0.0000    0.0000    0.0000    0.0000    0.0045    0.0000
       26 O1     4f1-       0.0000    0.0001   -0.0002    0.0032   -0.0029   -0.0012    0.0021    0.0035   -0.0000   -0.0011
       27 O1     4f0        0.0000   -0.0000   -0.0000    0.0000   -0.0000    0.0000    0.0000   -0.0000   -0.0038   -0.0000
       28 O1     4f1+       0.0000    0.0000   -0.0001    0.0011   -0.0012   -0.0007    0.0001    0.0013   -0.0000   -0.0010
       29 O1     4f2+       0.0000   -0.0000   -0.0000   -0.0000   -0.0000   -0.0000    0.0000   -0.0000   -0.0055   -0.0000
       30 O1     4f3+       0.0000    0.0002   -0.0002    0.0046   -0.0050   -0.0030   -0.0009    0.0068   -0.0000    0.0008
       31 O2     1s         0.9992   -0.0001   -0.0009   -0.0277    0.0000   -0.0164   -0.0071    0.0000    0.0000    0.0000
       32 O2     2s        -0.0056    0.0010    0.0114    0.6223   -0.0000   -0.6490   -0.0757    0.0000    0.0000    0.0000
       33 O2     3s        -0.0040    0.0006    0.0066   -0.0696    0.0000   -0.0174   -0.0130    0.0000    0.0000    0.0000
       34 O2     4s        -0.0009    0.0001    0.0011   -0.0127    0.0000   -0.0043   -0.0043    0.0000    0.0000    0.0000
       35 O2     2px       -0.0006    0.0003    0.0030    0.0800   -0.0000    0.1903    0.6913    0.0000    0.0000   -0.0000
       36 O2     3px       -0.0014    0.0002    0.0019   -0.0343    0.0000   -0.0252   -0.0734   -0.0000   -0.0000    0.0000
       37 O2     4px        0.0015   -0.0001   -0.0006   -0.0036    0.0000    0.0014   -0.0096   -0.0000   -0.0000   -0.0000
       38 O2     2py       -0.0000   -0.0063    0.0006   -0.0000   -0.3336    0.0000   -0.0000    0.5478   -0.0000   -0.1424
       39 O2     3py        0.0000   -0.0041    0.0004    0.0000    0.0647   -0.0000    0.0000   -0.0568    0.0000   -0.0070
       40 O2     4py       -0.0000    0.0012   -0.0001   -0.0000   -0.0019   -0.0000    0.0000   -0.0094   -0.0000   -0.0000
       41 O2     2pz        0.0000   -0.0000   -0.0000   -0.0000   -0.0000   -0.0000   -0.0000    0.0000    0.6700    0.0000
       42 O2     3pz        0.0000   -0.0000   -0.0000   -0.0000   -0.0000    0.0000    0.0000   -0.0000   -0.0461   -0.0000
       43 O2     4pz        0.0000   -0.0000   -0.0000   -0.0000   -0.0000   -0.0000    0.0000    0.0000   -0.0170   -0.0000
       44 O2     3d2-       0.0000   -0.0012    0.0001   -0.0000   -0.0342    0.0000   -0.0000    0.0239    0.0000   -0.0440
       45 O2     4d2-       0.0000   -0.0006    0.0001   -0.0000   -0.0037    0.0000   -0.0000    0.0021    0.0000   -0.0076
       46 O2     3d1-      -0.0000    0.0000    0.0000   -0.0000   -0.0000   -0.0000   -0.0000   -0.0000   -0.0000   -0.0000
       47 O2     4d1-       0.0000    0.0000    0.0000    0.0000   -0.0000   -0.0000   -0.0000   -0.0000   -0.0000   -0.0000
       48 O2     3d0        0.0004   -0.0001   -0.0011   -0.0148    0.0000   -0.0049   -0.0135   -0.0000   -0.0000    0.0000
       49 O2     4d0        0.0005   -0.0001   -0.0006    0.0009   -0.0000   -0.0001   -0.0008   -0.0000   -0.0000    0.0000
       50 O2     3d1+      -0.0000    0.0000    0.0000   -0.0000    0.0000   -0.0000   -0.0000    0.0000    0.0268    0.0000
       51 O2     4d1+       0.0000   -0.0000   -0.0000    0.0000    0.0000   -0.0000   -0.0000   -0.0000    0.0039    0.0000
       52 O2     3d2+       0.0006   -0.0001   -0.0013   -0.0181    0.0000   -0.0028    0.0163    0.0000   -0.0000    0.0000
       53 O2     4d2+       0.0003   -0.0001   -0.0006   -0.0016    0.0000   -0.0005    0.0012    0.0000   -0.0000    0.0000
       54 O2     4f3-      -0.0000    0.0001   -0.0000    0.0000    0.0045   -0.0000    0.0000   -0.0064    0.0000   -0.0078
       55 O2     4f2-       0.0000   -0.0000   -0.0000   -0.0000   -0.0000    0.0000    0.0000    0.0000   -0.0000   -0.0000
       56 O2     4f1-      -0.0000    0.0001   -0.0000    0.0000    0.0053   -0.0000    0.0000   -0.0045    0.0000    0.0011
       57 O2     4f0        0.0000   -0.0000    0.0000    0.0000    0.0000   -0.0000   -0.0000   -0.0000   -0.0059    0.0000
       58 O2     4f1+       0.0001   -0.0000   -0.0001   -0.0023    0.0000   -0.0001   -0.0014   -0.0000   -0.0000   -0.0000
       59 O2     4f2+      -0.0000   -0.0000   -0.0000    0.0000    0.0000   -0.0000    0.0000   -0.0000   -0.0079   -0.0000
       60 O2     4f3+       0.0001   -0.0000   -0.0002   -0.0093    0.0000   -0.0013   -0.0073   -0.0000   -0.0000    0.0000
       61 O3     1s         0.0023    0.7667    0.6402   -0.0130   -0.0122    0.0118   -0.0090    0.0233   -0.0000   -0.0076
       62 O3     2s         0.0028   -0.0058   -0.0051    0.3391    0.5639    0.6221   -0.1961    0.4323   -0.0000   -0.0757
       63 O3     3s         0.0016   -0.0041   -0.0035   -0.0087   -0.0200    0.0197   -0.0158    0.0513   -0.0000   -0.0175
       64 O3     4s         0.0003   -0.0009   -0.0007   -0.0003   -0.0040    0.0033   -0.0032    0.0109   -0.0000   -0.0040
       65 O3     2px       -0.0006    0.0012    0.0009   -0.0373   -0.0491    0.0897    0.2376    0.2814   -0.0000    0.6035
       66 O3     3px       -0.0005    0.0012    0.0007    0.0113    0.0069   -0.0152   -0.0146   -0.0246    0.0000    0.0040
       67 O3     4px       -0.0001   -0.0005   -0.0005    0.0023   -0.0003    0.0005   -0.0008   -0.0013    0.0000   -0.0046
       68 O3     2py        0.0018   -0.0024   -0.0024    0.1137    0.0806   -0.1266    0.2793   -0.3147    0.0000    0.3743
       69 O3     3py        0.0010   -0.0024   -0.0024   -0.0132   -0.0171    0.0212   -0.0259    0.0425   -0.0000   -0.0055
       70 O3     4py       -0.0004    0.0016    0.0014   -0.0011   -0.0037   -0.0010   -0.0038    0.0037   -0.0000   -0.0029
       71 O3     2pz        0.0000    0.0000    0.0000    0.0000    0.0000   -0.0000   -0.0000    0.0000    0.3902    0.0000
       72 O3     3pz       -0.0000    0.0000    0.0000    0.0000    0.0000   -0.0000   -0.0000   -0.0000   -0.0166    0.0000
       73 O3     4pz        0.0000    0.0000   -0.0000    0.0000    0.0000   -0.0000   -0.0000   -0.0000   -0.0068    0.0000
       74 O3     3d2-      -0.0002    0.0008    0.0007   -0.0117   -0.0122    0.0110    0.0067    0.0231   -0.0000    0.0052
       75 O3     4d2-      -0.0001    0.0005    0.0004   -0.0010   -0.0014    0.0007    0.0005    0.0018   -0.0000    0.0012
       76 O3     3d1-       0.0000    0.0000    0.0000    0.0000    0.0000   -0.0000   -0.0000    0.0000    0.0300    0.0000
       77 O3     4d1-      -0.0000    0.0000    0.0000    0.0000    0.0000   -0.0000   -0.0000    0.0000    0.0050    0.0000
       78 O3     3d0       -0.0003    0.0006    0.0005   -0.0105   -0.0092    0.0050   -0.0080    0.0145   -0.0000   -0.0053
       79 O3     4d0       -0.0001    0.0004    0.0004   -0.0006   -0.0009    0.0000   -0.0008    0.0008   -0.0000   -0.0007
       80 O3     3d1+       0.0000    0.0000   -0.0000    0.0000    0.0000   -0.0000    0.0000   -0.0000   -0.0118   -0.0000
       81 O3     4d1+      -0.0000    0.0000    0.0000    0.0000    0.0000   -0.0000    0.0000   -0.0000   -0.0023   -0.0000
       82 O3     3d2+      -0.0004    0.0010    0.0009   -0.0163   -0.0105    0.0080   -0.0249    0.0169   -0.0000   -0.0174
       83 O3     4d2+      -0.0002    0.0004    0.0004   -0.0023   -0.0014    0.0011   -0.0026    0.0012   -0.0000   -0.0026
       84 O3     4f3-      -0.0001    0.0001    0.0001   -0.0031   -0.0020    0.0001   -0.0075    0.0015   -0.0000   -0.0057
       85 O3     4f2-      -0.0000    0.0000    0.0000    0.0000    0.0000    0.0000    0.0000   -0.0000   -0.0045   -0.0000
       86 O3     4f1-      -0.0000    0.0002    0.0001   -0.0032   -0.0029    0.0012   -0.0021    0.0035   -0.0000   -0.0011
       87 O3     4f0        0.0000   -0.0000   -0.0000    0.0000   -0.0000    0.0000    0.0000   -0.0000   -0.0038   -0.0000
       88 O3     4f1+       0.0000   -0.0001   -0.0001    0.0011    0.0012   -0.0007    0.0001   -0.0013    0.0000    0.0010
       89 O3     4f2+      -0.0000    0.0000   -0.0000   -0.0000   -0.0000    0.0000   -0.0000   -0.0000   -0.0055    0.0000
       90 O3     4f3+       0.0000   -0.0002   -0.0001    0.0046    0.0050   -0.0030   -0.0009   -0.0068    0.0000   -0.0008
 
          Orbital           11        12        13        14        15        16        17        18        19        20    
          Energy           -0.5243   -0.5004   -0.0423    0.1733    0.1828    0.2354    0.2413    0.3318    0.3531    0.3756
          Occ. No.          2.0000    2.0000    0.0000    0.0000    0.0000    0.0000    0.0000    0.0000    0.0000    0.0000
 
        1 O1     1s         0.0037    0.0000   -0.0000   -0.2076   -0.1152    0.0000   -0.0284    0.0739   -0.0193    0.0000
        2 O1     2s         0.0169    0.0000   -0.0000   -1.5188   -0.9025    0.0000   -0.1167    0.4382   -0.0566   -0.0000
        3 O1     3s         0.0163    0.0000   -0.0000   -0.8891   -0.4484    0.0000   -0.2002    0.5548   -0.0314    0.0000
        4 O1     4s         0.0049    0.0000   -0.0000   -0.2001   -0.0889    0.0000   -0.0557    0.1537   -0.0011    0.0000
        5 O1     2px        0.6663   -0.0000    0.0000    0.3661    0.1523    0.0000   -0.0699   -0.0847   -0.2064   -0.0000
        6 O1     3px        0.0175   -0.0000   -0.0000    0.3603    0.2203   -0.0000    0.3294    0.1468   -0.7864   -0.0000
        7 O1     4px       -0.0037   -0.0000   -0.0000    0.0415    0.0539   -0.0000    0.1563    0.1045   -0.3133   -0.0000
        8 O1     2py       -0.0083   -0.0000    0.0000    0.5850    0.9409    0.0000   -0.2431   -0.1524   -0.2386    0.0000
        9 O1     3py       -0.0152   -0.0000    0.0000    0.7403    0.7077    0.0000   -0.0623   -0.8237   -0.1583    0.0000
       10 O1     4py       -0.0018    0.0000   -0.0000    0.1082    0.0959    0.0000   -0.0578   -0.2011   -0.0318    0.0000
       11 O1     2pz       -0.0000   -0.6997    0.6694   -0.0000    0.0000   -0.1398   -0.0000    0.0000   -0.0000   -0.1601
       12 O1     3pz       -0.0000   -0.0307    0.1676    0.0000   -0.0000    0.3481    0.0000    0.0000   -0.0000   -0.9027
       13 O1     4pz        0.0000    0.0069    0.0264    0.0000   -0.0000    0.1966    0.0000    0.0000   -0.0000   -0.3635
       14 O1     3d2-      -0.0091    0.0000   -0.0000   -0.0663   -0.0372    0.0000   -0.0115    0.0286    0.0028    0.0000
       15 O1     4d2-      -0.0011    0.0000   -0.0000   -0.0435   -0.0239    0.0000   -0.0086    0.0197    0.0146    0.0000
       16 O1     3d1-       0.0000    0.0242    0.0102    0.0000    0.0000    0.0095    0.0000   -0.0000   -0.0000    0.0040
       17 O1     4d1-       0.0000    0.0059    0.0006   -0.0000    0.0000    0.0015   -0.0000   -0.0000   -0.0000    0.0107
       18 O1     3d0        0.0049   -0.0000    0.0000    0.0520    0.0367   -0.0000    0.0233   -0.0470   -0.0070   -0.0000
       19 O1     4d0        0.0003   -0.0000    0.0000    0.0332    0.0256   -0.0000    0.0125   -0.0296   -0.0105   -0.0000
       20 O1     3d1+       0.0000    0.0089    0.0049   -0.0000   -0.0000    0.0032    0.0000   -0.0000    0.0000    0.0136
       21 O1     4d1+       0.0000    0.0020    0.0003   -0.0000   -0.0000   -0.0001    0.0000   -0.0000    0.0000    0.0115
       22 O1     3d2+       0.0053   -0.0000    0.0000    0.0630    0.0418   -0.0000    0.0469   -0.1004    0.0041   -0.0000
       23 O1     4d2+      -0.0006   -0.0000    0.0000    0.0373    0.0330   -0.0000    0.0218   -0.0645   -0.0007   -0.0000
       24 O1     4f3-       0.0004    0.0000   -0.0000   -0.0052   -0.0017   -0.0000    0.0020    0.0101   -0.0026   -0.0000
       25 O1     4f2-      -0.0000   -0.0034   -0.0001    0.0000   -0.0000    0.0015    0.0000    0.0000   -0.0000   -0.0056
       26 O1     4f1-      -0.0014    0.0000   -0.0000   -0.0054   -0.0045    0.0000   -0.0016    0.0092    0.0052    0.0000
       27 O1     4f0        0.0000    0.0017    0.0015   -0.0000    0.0000   -0.0018   -0.0000   -0.0000    0.0000    0.0059
       28 O1     4f1+       0.0006    0.0000   -0.0000   -0.0013   -0.0023    0.0000   -0.0013    0.0020    0.0043    0.0000
       29 O1     4f2+       0.0000    0.0042   -0.0005   -0.0000   -0.0000   -0.0015    0.0000   -0.0000   -0.0000    0.0036
       30 O1     4f3+      -0.0035    0.0000   -0.0000   -0.0074   -0.0058   -0.0000   -0.0012    0.0064    0.0091    0.0000
       31 O2     1s         0.0223   -0.0000    0.0000   -0.0000    0.3003    0.0000    0.0252   -0.2237    0.0000   -0.0000
       32 O2     2s         0.2689   -0.0000    0.0000   -0.0001    2.2387    0.0000    0.0346   -1.3179    0.0000   -0.0000
       33 O2     3s         0.0555   -0.0000    0.0000   -0.0000    1.1544    0.0000    0.1837   -0.8589    0.0000   -0.0000
       34 O2     4s         0.0137   -0.0000    0.0000   -0.0000    0.2471    0.0000    0.0344   -0.1501    0.0000   -0.0000
       35 O2     2px       -0.5469    0.0000   -0.0000   -0.0000    0.6920    0.0000   -0.2213   -0.1765   -0.0000    0.0000
       36 O2     3px       -0.0138    0.0000    0.0000   -0.0000    0.5678   -0.0000    0.3384   -0.5584    0.0000    0.0000
       37 O2     4px       -0.0025    0.0000    0.0000   -0.0000    0.0912   -0.0000    0.1575   -0.0516   -0.0000    0.0000
       38 O2     2py        0.0000    0.0000   -0.0000    1.4621    0.0000   -0.0000   -0.0000   -0.0000   -0.0959   -0.0000
       39 O2     3py        0.0000   -0.0000   -0.0000    1.4626    0.0000   -0.0000   -0.0000    0.0000    0.4055   -0.0000
       40 O2     4py        0.0000    0.0000   -0.0000    0.1483    0.0000   -0.0000   -0.0000    0.0000    0.1946   -0.0000
       41 O2     2pz        0.0000   -0.0000   -0.8759   -0.0000    0.0000   -0.0105   -0.0000    0.0000   -0.0000   -0.0000
       42 O2     3pz       -0.0000    0.0000   -0.1904    0.0000   -0.0000    0.3315    0.0000    0.0000   -0.0000   -0.0000
       43 O2     4pz       -0.0000    0.0000   -0.0210    0.0000   -0.0000    0.1906    0.0000    0.0000   -0.0000   -0.0000
       44 O2     3d2-       0.0000   -0.0000    0.0000    0.1240    0.0000   -0.0000   -0.0000    0.0000    0.0875   -0.0000
       45 O2     4d2-       0.0000   -0.0000    0.0000    0.0762    0.0000   -0.0000   -0.0000    0.0000    0.0630   -0.0000
       46 O2     3d1-      -0.0000   -0.0606    0.0000   -0.0000    0.0000    0.0000    0.0000   -0.0000    0.0000    0.1057
       47 O2     4d1-      -0.0000   -0.0141    0.0000   -0.0000    0.0000    0.0000    0.0000   -0.0000    0.0000    0.0635
       48 O2     3d0        0.0191    0.0000   -0.0000    0.0000   -0.0407    0.0000   -0.0663    0.1463   -0.0000    0.0000
       49 O2     4d0        0.0023    0.0000   -0.0000    0.0000   -0.0311    0.0000   -0.0326    0.0699   -0.0000    0.0000
       50 O2     3d1+       0.0000   -0.0000    0.0015   -0.0000    0.0000   -0.0240   -0.0000   -0.0000    0.0000    0.0000
       51 O2     4d1+       0.0000   -0.0000    0.0006   -0.0000    0.0000   -0.0101   -0.0000   -0.0000    0.0000   -0.0000
       52 O2     3d2+       0.0376   -0.0000   -0.0000    0.0000   -0.0420    0.0000   -0.1050    0.1003   -0.0000    0.0000
       53 O2     4d2+       0.0074    0.0000   -0.0000    0.0000   -0.0314    0.0000   -0.0444    0.0284   -0.0000    0.0000
       54 O2     4f3-       0.0000    0.0000   -0.0000   -0.0096   -0.0000    0.0000    0.0000    0.0000   -0.0004    0.0000
       55 O2     4f2-      -0.0000   -0.0071    0.0000   -0.0000   -0.0000    0.0000    0.0000   -0.0000    0.0000    0.0059
       56 O2     4f1-      -0.0000    0.0000   -0.0000   -0.0096   -0.0000    0.0000    0.0000   -0.0000   -0.0100    0.0000
       57 O2     4f0        0.0000    0.0000   -0.0021   -0.0000   -0.0000   -0.0016   -0.0000   -0.0000    0.0000    0.0000
       58 O2     4f1+      -0.0008    0.0000   -0.0000    0.0000   -0.0020    0.0000   -0.0044    0.0075   -0.0000   -0.0000
       59 O2     4f2+      -0.0000    0.0000    0.0010    0.0000    0.0000   -0.0019   -0.0000    0.0000    0.0000    0.0000
       60 O2     4f3+       0.0041   -0.0000   -0.0000    0.0000   -0.0070    0.0000   -0.0091    0.0130   -0.0000   -0.0000
       61 O3     1s         0.0037   -0.0000   -0.0000    0.2076   -0.1152   -0.0000   -0.0284    0.0739    0.0193    0.0000
       62 O3     2s         0.0169   -0.0000   -0.0000    1.5189   -0.9024   -0.0000   -0.1167    0.4382    0.0566    0.0000
       63 O3     3s         0.0163   -0.0000   -0.0000    0.8892   -0.4484   -0.0000   -0.2002    0.5548    0.0314    0.0000
       64 O3     4s         0.0049   -0.0000   -0.0000    0.2001   -0.0889    0.0000   -0.0557    0.1537    0.0011    0.0000
       65 O3     2px        0.6662   -0.0000    0.0000   -0.3661    0.1523    0.0000   -0.0699   -0.0846    0.2065   -0.0000
       66 O3     3px        0.0175   -0.0000    0.0000   -0.3603    0.2203   -0.0000    0.3295    0.1468    0.7864   -0.0000
       67 O3     4px       -0.0037   -0.0000    0.0000   -0.0415    0.0539   -0.0000    0.1563    0.1045    0.3133   -0.0000
       68 O3     2py        0.0083   -0.0000    0.0000    0.5851   -0.9409   -0.0000    0.2431    0.1524   -0.2386    0.0000
       69 O3     3py        0.0152   -0.0000    0.0000    0.7404   -0.7077   -0.0000    0.0623    0.8237   -0.1583    0.0000
       70 O3     4py        0.0018    0.0000    0.0000    0.1082   -0.0959   -0.0000    0.0578    0.2011   -0.0318    0.0000
       71 O3     2pz        0.0000    0.6997    0.6694   -0.0000    0.0000   -0.1398   -0.0000   -0.0000    0.0000    0.1601
       72 O3     3pz        0.0000    0.0307    0.1676    0.0000   -0.0000    0.3481    0.0000   -0.0000    0.0000    0.9027
       73 O3     4pz       -0.0000   -0.0069    0.0264    0.0000   -0.0000    0.1966    0.0000   -0.0000    0.0000    0.3635
       74 O3     3d2-       0.0091   -0.0000   -0.0000   -0.0663    0.0372    0.0000    0.0115   -0.0286    0.0028   -0.0000
       75 O3     4d2-       0.0011   -0.0000   -0.0000   -0.0435    0.0239    0.0000    0.0086   -0.0197    0.0146   -0.0000
       76 O3     3d1-       0.0000    0.0242   -0.0102   -0.0000    0.0000   -0.0095   -0.0000   -0.0000    0.0000    0.0040
       77 O3     4d1-       0.0000    0.0059   -0.0006   -0.0000   -0.0000   -0.0015   -0.0000   -0.0000    0.0000    0.0107
       78 O3     3d0        0.0049    0.0000    0.0000   -0.0520    0.0367   -0.0000    0.0233   -0.0470    0.0070   -0.0000
       79 O3     4d0        0.0003    0.0000    0.0000   -0.0332    0.0256    0.0000    0.0125   -0.0296    0.0105   -0.0000
       80 O3     3d1+      -0.0000   -0.0089    0.0049    0.0000   -0.0000    0.0032    0.0000   -0.0000   -0.0000   -0.0136
       81 O3     4d1+      -0.0000   -0.0020    0.0003   -0.0000    0.0000   -0.0001   -0.0000   -0.0000   -0.0000   -0.0115
       82 O3     3d2+       0.0053    0.0000   -0.0000   -0.0630    0.0418   -0.0000    0.0469   -0.1004   -0.0041   -0.0000
       83 O3     4d2+      -0.0006    0.0000   -0.0000   -0.0373    0.0330   -0.0000    0.0218   -0.0645    0.0007   -0.0000
       84 O3     4f3-      -0.0004    0.0000   -0.0000   -0.0052    0.0017    0.0000   -0.0020   -0.0101   -0.0026    0.0000
       85 O3     4f2-      -0.0000   -0.0034    0.0001   -0.0000    0.0000   -0.0015   -0.0000    0.0000   -0.0000   -0.0056
       86 O3     4f1-       0.0014    0.0000    0.0000   -0.0054    0.0045    0.0000    0.0016   -0.0092    0.0052   -0.0000
       87 O3     4f0       -0.0000   -0.0017    0.0015   -0.0000    0.0000   -0.0018   -0.0000    0.0000   -0.0000   -0.0059
       88 O3     4f1+       0.0006   -0.0000    0.0000    0.0013   -0.0023    0.0000   -0.0013    0.0020   -0.0043    0.0000
       89 O3     4f2+      -0.0000   -0.0042   -0.0005   -0.0000    0.0000   -0.0015   -0.0000    0.0000   -0.0000   -0.0036
       90 O3     4f3+      -0.0035    0.0000    0.0000    0.0074   -0.0058   -0.0000   -0.0012    0.0064   -0.0091    0.0000
 
          Orbital           21    
          Energy            0.4360
          Occ. No.          0.0000
 
        1 O1     1s        -0.0213
        2 O1     2s        -0.1191
        3 O1     3s         0.2330
        4 O1     4s         0.1288
        5 O1     2px        0.2660
        6 O1     3px        0.5996
        7 O1     4px        0.1569
        8 O1     2py       -0.0440
        9 O1     3py        0.4471
       10 O1     4py        0.1353
       11 O1     2pz        0.0000
       12 O1     3pz        0.0000
       13 O1     4pz       -0.0000
       14 O1     3d2-      -0.1015
       15 O1     4d2-      -0.0675
       16 O1     3d1-      -0.0000
       17 O1     4d1-      -0.0000
       18 O1     3d0        0.0427
       19 O1     4d0        0.0273
       20 O1     3d1+      -0.0000
       21 O1     4d1+      -0.0000
       22 O1     3d2+       0.0454
       23 O1     4d2+       0.0254
       24 O1     4f3-       0.0012
       25 O1     4f2-      -0.0000
       26 O1     4f1-      -0.0045
       27 O1     4f0        0.0000
       28 O1     4f1+      -0.0036
       29 O1     4f2+      -0.0000
       30 O1     4f3+      -0.0105
       31 O2     1s         0.0949
       32 O2     2s         0.5251
       33 O2     3s         0.7890
       34 O2     4s         0.2332
       35 O2     2px       -0.4327
       36 O2     3px       -0.8900
       37 O2     4px       -0.3005
       38 O2     2py        0.0000
       39 O2     3py       -0.0000
       40 O2     4py       -0.0000
       41 O2     2pz       -0.0000
       42 O2     3pz       -0.0000
       43 O2     4pz       -0.0000
       44 O2     3d2-      -0.0000
       45 O2     4d2-      -0.0000
       46 O2     3d1-       0.0000
       47 O2     4d1-       0.0000
       48 O2     3d0       -0.0312
       49 O2     4d0       -0.0038
       50 O2     3d1+       0.0000
       51 O2     4d1+      -0.0000
       52 O2     3d2+      -0.0701
       53 O2     4d2+      -0.0328
       54 O2     4f3-       0.0000
       55 O2     4f2-       0.0000
       56 O2     4f1-       0.0000
       57 O2     4f0        0.0000
       58 O2     4f1+       0.0023
       59 O2     4f2+       0.0000
       60 O2     4f3+       0.0008
       61 O3     1s        -0.0213
       62 O3     2s        -0.1191
       63 O3     3s         0.2330
       64 O3     4s         0.1288
       65 O3     2px        0.2660
       66 O3     3px        0.5996
       67 O3     4px        0.1569
       68 O3     2py        0.0440
       69 O3     3py       -0.4471
       70 O3     4py       -0.1353
       71 O3     2pz        0.0000
       72 O3     3pz        0.0000
       73 O3     4pz        0.0000
       74 O3     3d2-       0.1015
       75 O3     4d2-       0.0675
       76 O3     3d1-       0.0000
       77 O3     4d1-       0.0000
       78 O3     3d0        0.0427
       79 O3     4d0        0.0273
       80 O3     3d1+      -0.0000
       81 O3     4d1+      -0.0000
       82 O3     3d2+       0.0454
       83 O3     4d2+       0.0254
       84 O3     4f3-      -0.0012
       85 O3     4f2-      -0.0000
       86 O3     4f1-       0.0045
       87 O3     4f0       -0.0000
       88 O3     4f1+      -0.0036
       89 O3     4f2+      -0.0000
       90 O3     4f3+      -0.0105
--
 
 
++    Molecular charges:
      ------------------
 
      Mulliken charges per centre and basis function type
      ---------------------------------------------------
 
                O1      O2      O3    
      1s       1.9978  1.9984  1.9978
      2s       1.9490  1.6889  1.9490
      2px      1.8729  1.6334  1.8729
      2pz      1.3864  1.1379  1.3864
      2py      0.9335  1.0334  0.9335
      3s      -0.0030 -0.0279 -0.0030
      3px     -0.0131 -0.0239 -0.0131
      3pz     -0.0088 -0.0144 -0.0088
      3py      0.0028  0.0047  0.0028
      4s       0.0042  0.0021  0.0042
      3d2+     0.0172  0.0358  0.0172
      3d1+     0.0021  0.0059  0.0021
      3d0      0.0057  0.0074  0.0057
      3d1-     0.0131  0.0506  0.0131
      3d2-     0.0121  0.0408  0.0121
      4px      0.0005  0.0014  0.0005
      4pz      0.0013  0.0018  0.0013
      4py      0.0028  0.0034  0.0028
      4d2+     0.0011  0.0055  0.0011
      4d1+     0.0004  0.0008  0.0004
      4d0      0.0000 -0.0002  0.0000
      4d1-     0.0018  0.0128  0.0018
      4d2-     0.0004  0.0054  0.0004
      4f3+     0.0025  0.0028  0.0025
      4f2+     0.0012  0.0020  0.0012
      4f1+     0.0002  0.0004  0.0002
      4f0      0.0009  0.0016  0.0009
      4f1-     0.0011  0.0013  0.0011
      4f2-     0.0009  0.0028  0.0009
      4f3-     0.0025  0.0064  0.0025
      Total    8.1894  7.6211  8.1894
 
      N-E     -0.1894  0.3789 -0.1894
 
      Total electronic charge=   24.000000
 
      Total            charge=   -0.000000
--
 
 
  Input file to MOLDEN was generated!
 
 
++    Static properties:
      ------------------
 
 
      LoProp Charges per center
 

                   O1       O2       O3    
      Nuclear      8.0000   8.0000   8.0000
      Electronic  -8.1999  -7.6002  -8.1999
 
      Total       -0.1999   0.3998  -0.1999
--
 
 
++    Natural Bond Order analysis
      ---------------------------
      Based on LoProp computed density
      -------------------------------------------------------------------------------------
      Atom A       Atom B       Bond Order | Atom A       Atom B       Bond Order
        O1           O2             1.996  |   O2           O3             1.996
      -------------------------------------------------------------------------------------
      NBO located     11.999 core electrons.
      NBO located      3.940 lone pair electrons.
      NBO located      7.985 electrons involved in    2 bonds.
      The remaining    0.075 electrons are to be considered as diffuse
--
 
 
++    Molecular properties:
      ---------------------
 
      Charge (e):
                      =   -0.0000
      Dipole Moment (Debye):
      Origin of the operator (Ang)=    0.0000    0.0000    0.0000
                   X= -4.3743E-01               Y=  4.5904E-06               Z=  2.2341E-13           Total=  4.3743E-01
      Quadrupole Moment (Debye*Ang):
      Origin of the operator (Ang)=    0.3192    0.0000    0.0000
                  XX= -1.6143E+01              XY=  7.3207E-07              XZ=  6.3603E-14              YY= -1.7094E+01
                  YZ=  3.5040E-13              ZZ= -1.4919E+01
      In traceless form (Debye*Ang)
                  XX= -1.3663E-01              XY=  1.0981E-06              XZ=  9.5405E-14              YY= -1.5628E+00
                  YZ=  5.2559E-13              ZZ=  1.6995E+00
--
 
 
  Input file to MOLDEN was generated!
 
 ###############################################################################
 ###############################################################################
 ###                                                                         ###
 ###                                                                         ###
 ###    RunFile label nBas                                                   ###
 ###    was used       78 times                                              ###
 ###                                                                         ###
 ###                                                                         ###
 ###############################################################################
 ###############################################################################
forrtl: warning (528): IEEE_UNDERFLOW is signaling
--- Stop Module: scf at Fri Apr 11 19:09:48 2025 /rc=_RC_ALL_IS_WELL_ ---
*** files: ozone_136.00.LprOrb ozone_136.00.LoProp.molden ozone_136.00.scf.molden ozone_136.00.ScfOrb ozone_136.00.scf.h5 xmldump
    saved to directory /home/grierjones/DDCASPT2/ozone/multistate/ANO-RCC-VTZP/ozone_136.00

>>> COPY /tmp/ozone_136.00/ozone_136.00.scf.h5 /home/grierjones/DDCASPT2/ozone/multistate/ANO-RCC-VTZP/ozone_136.00/

*** symbolic link created: INPORB -> ozone_136.00.ScfOrb
--- Start Module: rasscf at Fri Apr 11 19:09:48 2025 ---
 
()()()()()()()()()()()()()()()()()()()()()()()()()()()()()()()()()()()()()()()()()()()()()()()()()()

                                              &RASSCF

                                   only a single process is used
                       available to each process: 2.0 GB of memory, 1 thread?
()()()()()()()()()()()()()()()()()()()()()()()()()()()()()()()()()()()()()()()()()()()()()()()()()()
 
 
      Header of the ONEINT file:
      --------------------------
      
      Integrals generated by seward 4.2.0  , Fri Apr 11 19:09:45 2025
 
 
      OrdInt status: non-squared
 
 
      Cartesian coordinates in Angstrom:
      -----------------------------------------------------
      No.  Label        X            Y            Z        
      -----------------------------------------------------
       1   O1         0.47874700   1.18494100   0.00000000
       2   O2         0.00000000   0.00000000   0.00000000
       3   O3         0.47874700  -1.18494100   0.00000000
      -----------------------------------------------------
      Nuclear repulsion energy =   67.29126564
 
++    Wave function specifications:
      -----------------------------
 
      Number of closed shell electrons          20
      Number of electrons in active shells       4
      Max number of holes in RAS1 space          0
      Max nr of electrons in RAS3 space          0
      Number of inactive orbitals               10
      Number of active orbitals                  3
      Number of secondary orbitals              77
      Spin quantum number                      0.0
      State symmetry                             1
--
 
++    Orbital specifications:
      -----------------------
 
      Symmetry species                           1
                                                 a
      Frozen orbitals                            0
      Inactive orbitals                         10
      Active orbitals                            3
      RAS1 orbitals                              0
      RAS2 orbitals                              3
      RAS3 orbitals                              0
      Secondary orbitals                        77
      Deleted orbitals                           0
      Number of basis functions                 90
--
 
++    CI expansion specifications:
      ----------------------------
 
      Number of CSFs                             6
      Number of determinants                     6
      Number of root(s) required                 3
      Root chosen for geometry opt.              3
      CI roots used                              1     2     3
      weights                                0.333 0.333 0.333
      highest root included in the CI            3
      max. size of the explicit Hamiltonian      6
--
 
++    Optimization specifications:
      ----------------------------
 
      RASSCF algorithm: Conventional
      Maximum number of macro iterations       200
      Maximum number of SX iterations          100
      Threshold for RASSCF energy            0.100E-07
      Threshold for max MO rotation          0.100E+00
      Threshold for max BLB element          0.100E-03
      Level shift parameter                  0.500E+00
      Make Quasi-Newton update
--
 
      The MO-coefficients are taken from the file:
      /home/grierjones/DDCASPT2/ozone/multistate/ANO-RCC-VTZP/ozone_135.75/ozone_135.75.RasOrb                                        
      Title: RASSCF average (pseudo-natural) orbitals                                      
 
      Total molecular charge    0.00
 
      ************************************************************************************************************************
      *                                                                                                                      *
      *                                            Wave function control section                                             *
      *                                                                                                                      *
      ************************************************************************************************************************
 
 
                                         RASSCF iterations: Energy and convergence statistics
                                         ----------------------------------------------------
 
      Iter CI   SX   CI       RASSCF       Energy    max ROT     max BLB   max BLB  Level Ln srch  Step   QN   Walltime
          iter iter root      energy       change     param      element    value   shift minimum  type update hh:mm:ss
 Nr of preliminary CI iterations:   1
        1   1    4    0  -224.46197746    0.00E+00   0.79E-03   12  23 1 -0.11E-02*  0.27   0.00    SX    NO    0:00:00
        2   1    4    0  -224.46198275   -0.53E-05*  0.50E-03   12  23 1 -0.54E-03*  0.27   0.00    SX    NO    0:00:00
        3   1    4    0  -224.46198416   -0.14E-05*  0.39E-03   12  23 1 -0.31E-03*  0.27   0.00    SX    NO    0:00:00
        4   1    4    0  -224.46198475   -0.59E-06*  0.29E-03    8  18 1  0.19E-03*  0.27   0.00    SX    NO    0:00:00
        5   1    4    0  -224.46198500   -0.25E-06*  0.44E-03    8  11 1  0.14E-03*  0.27   2.50    LS   YES    0:00:00
        6   1    4    0  -224.46198518   -0.17E-06*  0.40E-03   10  37 1 -0.10E-03*  0.27   1.23    QN   YES    0:00:00
        7   1    4    0  -224.46198530   -0.13E-06*  0.18E-03   12  23 1  0.13E-03*  0.27   0.96    QN   YES    0:00:00
        8   1    4    0  -224.46198536   -0.57E-07*  0.83E-03   12  23 1  0.86E-04   0.27   1.57    QN   YES    0:00:00
        9   1    4    0  -224.46198540   -0.36E-07*  0.37E-03   10  37 1  0.28E-03*  0.27   0.64    QN   YES    0:00:00
       10   1    4    0  -224.46198544   -0.42E-07* -0.76E-04    9  18 1 -0.21E-03*  0.27   0.54    SX   YES    0:00:00
       11   1    4    0  -224.46198545   -0.11E-07* -0.39E-04   10  37 1  0.17E-03*  0.27   0.49    LS   YES    0:00:00
       12   1    4    0  -224.46198546   -0.12E-07*  0.76E-04    9  18 1 -0.69E-04   0.27   0.56    QN   YES    0:00:00
       13   1    3    0  -224.46198547   -0.75E-08   0.35E-04   10  37 1  0.35E-04   0.27   0.86    QN   YES    0:00:00
      Convergence after 13 iterations
 
  Dmat in MO in SXCTL bf call to SXHAM                                                                                    
  mat. size =     3x    3
 
        1.1684880713195058
       -0.0038176351807922      1.8305083272521148
        0.0000058212169930      0.0000303320362995      1.0010036014283794
       14   1    3    0  -224.46198547   -0.13E-08   0.35E-04    9  18 1 -0.16E-04   0.27   0.86    QN   YES    0:00:00
 
      ************************************************************************************************************************
                                                      Wave function printout:
                       occupation of active orbitals, and spin coupling of open shells (u,d: Spin up or down)
      ************************************************************************************************************************
 
      Note: transformation to natural orbitals
      has been made, which may change the order of the CSFs.
 
      printout of CI-coefficients larger than  0.05 for root  1
      energy=    -224.478755
      conf/sym  111     Coeff  Weight
             1  220   0.84525 0.71445
             3  202   0.21543 0.04641
             5  ud2   0.13763 0.01894
             6  022  -0.46925 0.22020
 
      printout of CI-coefficients larger than  0.05 for root  2
      energy=    -224.460314
      conf/sym  111     Coeff  Weight
             1  220  -0.53295 0.28404
             3  202   0.40603 0.16486
             5  ud2   0.21520 0.04631
             6  022  -0.71047 0.50477
 
      printout of CI-coefficients larger than  0.05 for root  3
      energy=    -224.446888
      conf/sym  111     Coeff  Weight
             2  2ud  -0.14354 0.02060
             4  u2d  -0.98963 0.97937
 
      Natural orbitals and occupation numbers for root  1
      sym 1:   1.533778   1.895127   0.571095
 
      Natural orbitals and occupation numbers for root  2
      sym 1:   0.931597   1.636362   1.432041
 
      Natural orbitals and occupation numbers for root  3
      sym 1:   0.991967   1.999996   1.008037
 
      ************************************************************************************************************************
      *                                                                                                                      *
      *                                                    Final results                                                     *
      *                                                                                                                      *
      ************************************************************************************************************************
 
 
++    Wave function specifications:
      -----------------------------
 
      Number of closed shell electrons          20
      Number of electrons in active shells       4
      Max number of holes in RAS1 space          0
      Max nr of electrons in RAS3 space          0
      Number of inactive orbitals               10
      Number of active orbitals                  3
      Number of secondary orbitals              77
      Spin quantum number                      0.0
      State symmetry                             1
--
 
++    Orbital specifications:
      -----------------------
 
      Symmetry species                           1
                                                 a
      Frozen orbitals                            0
      Inactive orbitals                         10
      Active orbitals                            3
      RAS1 orbitals                              0
      RAS2 orbitals                              3
      RAS3 orbitals                              0
      Secondary orbitals                        77
      Deleted orbitals                           0
      Number of basis functions                 90
--
 
++    CI expansion specifications:
      ----------------------------
 
      Number of CSFs                             6
      Number of determinants                     6
      Number of root(s) required                 3
      CI roots used                              1     2     3
      weights                                0.333 0.333 0.333
      highest root included in the CI            3
      Root passed to geometry opt.               3
--
 
++    Final optimization conditions:
      ------------------------------
 
      Average CI energy                            -224.46198547
      RASSCF energy for state  3                   -224.44688757
      Super-CI energy                                -0.00000000
      RASSCF energy change                           -0.00000000
      Max change in MO coefficients              -0.252E-04
      Max non-diagonal density matrix element     0.349E-04
      Maximum BLB matrix element                 -0.162E-04
      (orbital pair   9,  18 in symmetry   1)
      Norm of electronic gradient            0.196E+00
--
 
 
      Final state energy(ies):
      ------------------------
 
::    RASSCF root number  1 Total energy:   -224.47875499
::    RASSCF root number  2 Total energy:   -224.46031385
::    RASSCF root number  3 Total energy:   -224.44688757
 
++    Molecular orbitals:
      -------------------
 
      Pseudonatural active orbitals and approximate occupation numbers
 
 
 
 
      Molecular orbitals for symmetry species 1: a  
 
 
      Orbital                1         2         3         4         5         6         7         8         9        10
      Energy          -20.8355  -20.7454  -20.7331   -1.7039   -1.4411   -1.0669   -0.7887   -0.7819   -0.7659   -0.5582
      Occ. No.          2.0000    2.0000    2.0000    2.0000    2.0000    2.0000    2.0000    2.0000    2.0000    2.0000
 
    1 O1     1s         0.0038    0.9989    0.0018   -0.0130    0.0108    0.0137    0.0000   -0.0101    0.0225   -0.0000
    2 O1     2s         0.0028   -0.0077   -0.0003    0.3619   -0.5827    0.6299    0.0000   -0.1856    0.3755   -0.0000
    3 O1     3s         0.0016   -0.0054   -0.0001   -0.0108    0.0194    0.0219    0.0000   -0.0204    0.0498   -0.0000
    4 O1     4s         0.0003   -0.0011    0.0000   -0.0007    0.0040    0.0035    0.0000   -0.0047    0.0107   -0.0000
    5 O1     2px       -0.0005    0.0015   -0.0001   -0.0264    0.0219    0.0728    0.0001    0.1890    0.0999    0.0005
    6 O1     3px       -0.0005    0.0014   -0.0002    0.0106   -0.0053   -0.0144   -0.0000   -0.0121   -0.0233    0.0000
    7 O1     4px       -0.0001   -0.0007   -0.0001    0.0021    0.0005   -0.0002   -0.0000   -0.0024   -0.0008   -0.0000
    8 O1     2py       -0.0018    0.0034    0.0004   -0.1184    0.0844    0.1585   -0.0000   -0.3511    0.4047   -0.0002
    9 O1     3py       -0.0010    0.0034    0.0003    0.0144   -0.0163   -0.0246   -0.0000    0.0291   -0.0381   -0.0000
   10 O1     4py        0.0004   -0.0021   -0.0000    0.0010   -0.0038    0.0009   -0.0000    0.0058   -0.0043    0.0000
   11 O1     2pz        0.0000    0.0000   -0.0000    0.0000   -0.0000   -0.0000   -0.3989   -0.0000   -0.0001   -0.7303
   12 O1     3pz       -0.0000    0.0000    0.0000   -0.0000    0.0000    0.0000    0.0267   -0.0000   -0.0000   -0.0091
   13 O1     4pz       -0.0000    0.0000   -0.0000   -0.0000    0.0000   -0.0000    0.0048   -0.0000    0.0000    0.0067
   14 O1     3d2-       0.0002   -0.0011   -0.0000    0.0113   -0.0108   -0.0116   -0.0000   -0.0070   -0.0211   -0.0000
   15 O1     4d2-       0.0001   -0.0006    0.0000    0.0008   -0.0013   -0.0008   -0.0000   -0.0014   -0.0016   -0.0000
   16 O1     3d1-      -0.0000    0.0000   -0.0000   -0.0000    0.0000    0.0000    0.0259   -0.0000    0.0000    0.0162
   17 O1     4d1-      -0.0000   -0.0000   -0.0000   -0.0000   -0.0000    0.0000    0.0033   -0.0000    0.0000    0.0028
   18 O1     3d0       -0.0003    0.0010    0.0001   -0.0112    0.0084    0.0083    0.0000   -0.0099    0.0157   -0.0000
   19 O1     4d0       -0.0002    0.0005    0.0000   -0.0010    0.0010    0.0007    0.0000   -0.0009    0.0012   -0.0000
   20 O1     3d1+      -0.0000   -0.0000   -0.0000   -0.0000    0.0000   -0.0000    0.0096   -0.0000   -0.0000    0.0052
   21 O1     4d1+      -0.0000    0.0000   -0.0000   -0.0000    0.0000   -0.0000    0.0013   -0.0000   -0.0000    0.0005
   22 O1     3d2+      -0.0004    0.0011    0.0001   -0.0165    0.0109    0.0085   -0.0000   -0.0289    0.0178   -0.0000
   23 O1     4d2+      -0.0002    0.0007    0.0001   -0.0023    0.0014    0.0008   -0.0000   -0.0034    0.0014   -0.0000
   24 O1     4f3-       0.0001   -0.0001    0.0000    0.0027   -0.0018   -0.0001    0.0000    0.0070   -0.0013    0.0000
   25 O1     4f2-       0.0000    0.0000    0.0000   -0.0000    0.0000    0.0000   -0.0040   -0.0000    0.0000   -0.0026
   26 O1     4f1-       0.0001   -0.0002   -0.0000    0.0040   -0.0034   -0.0018    0.0000    0.0032   -0.0043    0.0000
   27 O1     4f0       -0.0000   -0.0000   -0.0000   -0.0000    0.0000   -0.0000    0.0051   -0.0000    0.0000    0.0036
   28 O1     4f1+       0.0000   -0.0001   -0.0000    0.0015   -0.0014   -0.0010   -0.0000   -0.0009   -0.0020   -0.0000
   29 O1     4f2+      -0.0000    0.0000    0.0000   -0.0000    0.0000    0.0000    0.0044   -0.0000    0.0000    0.0022
   30 O1     4f3+       0.0000   -0.0003    0.0000    0.0042   -0.0044   -0.0028   -0.0000    0.0001   -0.0057   -0.0000
   31 O2     1s         0.9992   -0.0021   -0.0017   -0.0281   -0.0001   -0.0151    0.0000   -0.0125   -0.0004    0.0000
   32 O2     2s        -0.0051    0.0081    0.0083    0.6065    0.0140   -0.6568    0.0000   -0.1667   -0.0018    0.0001
   33 O2     3s        -0.0039    0.0047    0.0048   -0.0620   -0.0004   -0.0252    0.0000   -0.0273   -0.0011    0.0000
   34 O2     4s        -0.0007    0.0008    0.0008   -0.0123   -0.0001   -0.0047    0.0000   -0.0070   -0.0004    0.0000
   35 O2     2px       -0.0007    0.0021    0.0021    0.0697   -0.0007    0.1374    0.0000    0.6965    0.0837   -0.0001
   36 O2     3px       -0.0013    0.0013    0.0014   -0.0319   -0.0005   -0.0153   -0.0000   -0.0521   -0.0072   -0.0000
   37 O2     4px        0.0014   -0.0004   -0.0004   -0.0037   -0.0001    0.0011   -0.0000   -0.0124   -0.0017    0.0000
   38 O2     2py       -0.0001    0.0045   -0.0045    0.0031   -0.3055   -0.0085   -0.0000    0.0666   -0.5411    0.0000
   39 O2     3py       -0.0001    0.0029   -0.0029   -0.0006    0.0606    0.0007    0.0000   -0.0070    0.0455    0.0000
   40 O2     4py        0.0000   -0.0008    0.0008   -0.0001   -0.0011    0.0001    0.0000   -0.0013    0.0097    0.0000
   41 O2     2pz        0.0000   -0.0000    0.0000    0.0000    0.0000    0.0000   -0.6980    0.0001    0.0001    0.0733
   42 O2     3pz       -0.0000   -0.0000    0.0000   -0.0000   -0.0000   -0.0000    0.0514   -0.0000   -0.0000    0.0021
   43 O2     4pz        0.0000    0.0000   -0.0000   -0.0000   -0.0000    0.0000    0.0133   -0.0000   -0.0000   -0.0006
   44 O2     3d2-      -0.0000    0.0008   -0.0009    0.0003   -0.0321   -0.0003   -0.0000    0.0057   -0.0361    0.0000
   45 O2     4d2-      -0.0000    0.0004   -0.0004    0.0000   -0.0033    0.0001   -0.0000    0.0009   -0.0045    0.0000
   46 O2     3d1-      -0.0000   -0.0000   -0.0000   -0.0000   -0.0000    0.0000   -0.0010    0.0000   -0.0000   -0.0459
   47 O2     4d1-       0.0000   -0.0000   -0.0000   -0.0000   -0.0000    0.0000   -0.0001    0.0000   -0.0000   -0.0087
   48 O2     3d0        0.0006   -0.0008   -0.0008   -0.0157    0.0003   -0.0042   -0.0000   -0.0150   -0.0010    0.0000
   49 O2     4d0        0.0004   -0.0004   -0.0004    0.0001    0.0001   -0.0000    0.0000   -0.0010    0.0000    0.0000
   50 O2     3d1+       0.0000    0.0000   -0.0000    0.0000   -0.0000   -0.0000   -0.0213    0.0000    0.0000    0.0010
   51 O2     4d1+      -0.0000    0.0000    0.0000    0.0000   -0.0000   -0.0000   -0.0022    0.0000    0.0000    0.0002
   52 O2     3d2+       0.0006   -0.0009   -0.0009   -0.0182    0.0001    0.0005    0.0000    0.0165    0.0035    0.0000
   53 O2     4d2+       0.0004   -0.0005   -0.0005   -0.0014    0.0000    0.0008    0.0000    0.0026    0.0006    0.0000
   54 O2     4f3-       0.0000   -0.0001    0.0001    0.0000    0.0037    0.0001    0.0000   -0.0004    0.0033    0.0000
   55 O2     4f2-       0.0000    0.0000    0.0000    0.0000    0.0000   -0.0000   -0.0002   -0.0000   -0.0000   -0.0061
   56 O2     4f1-       0.0000   -0.0001    0.0001   -0.0002    0.0068    0.0002    0.0000   -0.0009    0.0064   -0.0000
   57 O2     4f0       -0.0000   -0.0000   -0.0000   -0.0000    0.0000    0.0000    0.0081   -0.0000   -0.0000   -0.0003
   58 O2     4f1+       0.0001   -0.0001   -0.0001   -0.0029    0.0000   -0.0005   -0.0000   -0.0041   -0.0005    0.0000
   59 O2     4f2+      -0.0000    0.0000   -0.0000   -0.0000   -0.0000   -0.0000    0.0069   -0.0000   -0.0000   -0.0003
   60 O2     4f3+       0.0001   -0.0002   -0.0002   -0.0085   -0.0000   -0.0006   -0.0000   -0.0075   -0.0008    0.0000
   61 O3     1s         0.0033   -0.0019    0.9989   -0.0128   -0.0113    0.0130   -0.0000   -0.0042   -0.0249    0.0000
   62 O3     2s         0.0026   -0.0002   -0.0078    0.3475    0.5815    0.6287   -0.0000   -0.0841   -0.4305    0.0000
   63 O3     3s         0.0015   -0.0001   -0.0055   -0.0099   -0.0189    0.0214   -0.0000   -0.0078   -0.0547    0.0000
   64 O3     4s         0.0002    0.0000   -0.0011   -0.0005   -0.0039    0.0034   -0.0000   -0.0019   -0.0117    0.0000
   65 O3     2px       -0.0004   -0.0001    0.0015   -0.0287   -0.0182    0.0734    0.0001    0.2215   -0.0211   -0.0003
   66 O3     3px       -0.0005   -0.0002    0.0014    0.0105    0.0059   -0.0139    0.0000   -0.0192    0.0203   -0.0000
   67 O3     4px       -0.0001   -0.0001   -0.0007    0.0021   -0.0005   -0.0001   -0.0000   -0.0022   -0.0001    0.0000
   68 O3     2py        0.0017   -0.0004   -0.0035    0.1135    0.0875   -0.1450    0.0001    0.2360    0.4756   -0.0003
   69 O3     3py        0.0009   -0.0003   -0.0034   -0.0136   -0.0164    0.0231   -0.0000   -0.0180   -0.0435    0.0000
   70 O3     4py       -0.0004    0.0000    0.0021   -0.0009   -0.0038   -0.0011   -0.0000   -0.0042   -0.0054    0.0000
   71 O3     2pz       -0.0000   -0.0000    0.0000   -0.0000    0.0000    0.0000   -0.3494    0.0000    0.0001    0.6740
   72 O3     3pz       -0.0000   -0.0000   -0.0000    0.0000    0.0000   -0.0000    0.0235   -0.0000    0.0000    0.0071
   73 O3     4pz       -0.0000    0.0000    0.0000    0.0000   -0.0000    0.0000    0.0045   -0.0000   -0.0000   -0.0071
   74 O3     3d2-      -0.0002    0.0000    0.0011   -0.0111   -0.0109    0.0112    0.0000    0.0118   -0.0186   -0.0000
   75 O3     4d2-      -0.0001   -0.0000    0.0006   -0.0008   -0.0012    0.0007    0.0000    0.0015   -0.0012   -0.0000
   76 O3     3d1-      -0.0000   -0.0000   -0.0000   -0.0000    0.0000   -0.0000   -0.0254    0.0000    0.0000    0.0194
   77 O3     4d1-      -0.0000   -0.0000   -0.0000   -0.0000    0.0000   -0.0000   -0.0034    0.0000    0.0000    0.0034
   78 O3     3d0       -0.0003    0.0000    0.0009   -0.0109   -0.0090    0.0072   -0.0000   -0.0056   -0.0175    0.0000
   79 O3     4d0       -0.0001    0.0000    0.0005   -0.0009   -0.0011    0.0005   -0.0000   -0.0006   -0.0014    0.0000
   80 O3     3d1+      -0.0000    0.0000    0.0000   -0.0000    0.0000    0.0000    0.0094   -0.0000   -0.0000   -0.0064
   81 O3     4d1+      -0.0000    0.0000   -0.0000   -0.0000   -0.0000    0.0000    0.0013    0.0000   -0.0000   -0.0007
   82 O3     3d2+      -0.0004    0.0001    0.0012   -0.0160   -0.0110    0.0083   -0.0000   -0.0230   -0.0249    0.0000
   83 O3     4d2+      -0.0002    0.0001    0.0007   -0.0022   -0.0014    0.0008   -0.0000   -0.0028   -0.0024    0.0000
   84 O3     4f3-      -0.0001   -0.0000    0.0001   -0.0027   -0.0019    0.0002   -0.0000   -0.0067   -0.0035    0.0000
   85 O3     4f2-      -0.0000    0.0000    0.0000   -0.0000   -0.0000    0.0000    0.0039   -0.0000   -0.0000   -0.0031
   86 O3     4f1-      -0.0001    0.0000    0.0002   -0.0037   -0.0034    0.0015   -0.0000   -0.0018   -0.0046    0.0000
   87 O3     4f0        0.0000    0.0000    0.0000   -0.0000   -0.0000    0.0000    0.0045   -0.0000   -0.0000   -0.0034
   88 O3     4f1+       0.0000   -0.0000   -0.0001    0.0014    0.0014   -0.0009    0.0000   -0.0011    0.0016   -0.0000
   89 O3     4f2+       0.0000    0.0000    0.0000    0.0000    0.0000   -0.0000    0.0045   -0.0000   -0.0000   -0.0031
   90 O3     4f3+       0.0000    0.0000   -0.0003    0.0042    0.0045   -0.0028   -0.0000   -0.0015    0.0058    0.0000
 
 
      Orbital               11        12        13        14        15        16        17        18        19        20
      Energy            0.0000    0.0000    0.0000    0.1736    0.1865    0.2368    0.2486    0.3359    0.3535    0.3742
      Occ. No.          1.1685    1.8305    1.0010    0.0000    0.0000    0.0000    0.0000    0.0000    0.0000    0.0000
 
    1 O1     1s        -0.0028    0.0024   -0.0000   -0.2146   -0.1064   -0.0000    0.0131   -0.0760   -0.0169   -0.0000
    2 O1     2s        -0.0043    0.0646    0.0000   -1.5694   -0.8322   -0.0000    0.0106   -0.4456   -0.0475   -0.0000
    3 O1     3s        -0.0131    0.0031   -0.0000   -0.9153   -0.4091    0.0000    0.1260   -0.5688   -0.0198   -0.0000
    4 O1     4s        -0.0043    0.0001   -0.0000   -0.2048   -0.0797    0.0000    0.0380   -0.1560    0.0017   -0.0000
    5 O1     2px       -0.7667    0.5550   -0.0001    0.3772    0.1372    0.0000    0.0681    0.0743   -0.2104   -0.0000
    6 O1     3px       -0.0093   -0.0007   -0.0000    0.3909    0.2287   -0.0000   -0.3559   -0.1163   -0.7985    0.0000
    7 O1     4px        0.0068   -0.0061   -0.0000    0.0508    0.0642   -0.0000   -0.1728   -0.0936   -0.3177   -0.0000
    8 O1     2py        0.0575   -0.2469   -0.0001    0.6284    0.8842    0.0000    0.3119    0.1339   -0.2153    0.0000
    9 O1     3py        0.0103   -0.0095    0.0000    0.7880    0.6666    0.0000    0.1728    0.8369   -0.1434    0.0000
   10 O1     4py        0.0014    0.0022    0.0000    0.1159    0.0875    0.0000    0.0793    0.2010   -0.0263    0.0000
   11 O1     2pz       -0.0004    0.0004    0.6068   -0.0000    0.0000    0.0573    0.0000   -0.0000   -0.0000   -0.1820
   12 O1     3pz       -0.0000   -0.0000    0.0456    0.0000    0.0000   -0.4090    0.0000   -0.0000    0.0000   -0.9088
   13 O1     4pz        0.0000   -0.0000    0.0031    0.0000    0.0000   -0.2106    0.0000   -0.0000   -0.0000   -0.3594
   14 O1     3d2-       0.0120   -0.0146   -0.0000   -0.0703   -0.0345   -0.0000    0.0081   -0.0312    0.0022   -0.0000
   15 O1     4d2-       0.0015   -0.0027   -0.0000   -0.0461   -0.0223    0.0000    0.0068   -0.0210    0.0141   -0.0000
   16 O1     3d1-       0.0000   -0.0000    0.0100   -0.0000    0.0000   -0.0060    0.0000    0.0000    0.0000    0.0065
   17 O1     4d1-       0.0000   -0.0000    0.0019   -0.0000   -0.0000    0.0010   -0.0000    0.0000   -0.0000    0.0116
   18 O1     3d0       -0.0043    0.0002   -0.0000    0.0540    0.0352   -0.0000   -0.0182    0.0544   -0.0081    0.0000
   19 O1     4d0       -0.0001   -0.0003    0.0000    0.0343    0.0247   -0.0000   -0.0088    0.0340   -0.0109    0.0000
   20 O1     3d1+      -0.0000   -0.0000    0.0061    0.0000    0.0000   -0.0029    0.0000   -0.0000    0.0000    0.0140
   21 O1     4d1+      -0.0000   -0.0000    0.0014    0.0000    0.0000    0.0003    0.0000   -0.0000    0.0000    0.0113
   22 O1     3d2+      -0.0042   -0.0112   -0.0000    0.0669    0.0397   -0.0000   -0.0387    0.1078    0.0028    0.0000
   23 O1     4d2+       0.0001   -0.0019   -0.0000    0.0405    0.0319   -0.0000   -0.0153    0.0674   -0.0011    0.0000
   24 O1     4f3-      -0.0003    0.0039    0.0000   -0.0053   -0.0002   -0.0000   -0.0023   -0.0112   -0.0030   -0.0000
   25 O1     4f2-       0.0000    0.0000   -0.0010    0.0000    0.0000   -0.0019    0.0000   -0.0000   -0.0000   -0.0059
   26 O1     4f1-       0.0010    0.0004    0.0000   -0.0058   -0.0052   -0.0000    0.0001   -0.0089    0.0055   -0.0000
   27 O1     4f0        0.0000   -0.0000    0.0006   -0.0000    0.0000    0.0018   -0.0000   -0.0000   -0.0000    0.0056
   28 O1     4f1+       0.0029   -0.0020   -0.0000   -0.0017   -0.0025    0.0000    0.0006   -0.0023    0.0040    0.0000
   29 O1     4f2+      -0.0000   -0.0000    0.0004    0.0000    0.0000    0.0023    0.0000    0.0000    0.0000    0.0042
   30 O1     4f3+       0.0016   -0.0013    0.0000   -0.0079   -0.0054    0.0000    0.0013   -0.0068    0.0092   -0.0000
   31 O2     1s        -0.0230   -0.0035   -0.0000    0.0180    0.3032   -0.0000    0.0120    0.2308   -0.0023    0.0000
   32 O2     2s        -0.2608   -0.0429   -0.0001    0.1335    2.2584   -0.0000    0.2211    1.3466   -0.0112    0.0000
   33 O2     3s        -0.0608   -0.0090   -0.0000    0.0726    1.1878   -0.0000   -0.0307    0.9111   -0.0054    0.0000
   34 O2     4s        -0.0145   -0.0021   -0.0000    0.0159    0.2540   -0.0000   -0.0044    0.1639   -0.0001    0.0000
   35 O2     2px        0.5124    0.0807    0.0002    0.0406    0.6819    0.0000    0.3312    0.1350    0.0047    0.0000
   36 O2     3px        0.0235    0.0036    0.0000    0.0307    0.5908   -0.0000   -0.2065    0.5475    0.0056   -0.0000
   37 O2     4px        0.0015    0.0001    0.0000    0.0040    0.0977   -0.0000   -0.1395    0.0566    0.0040   -0.0000
   38 O2     2py       -0.0012   -0.0964   -0.0000    1.4520   -0.0803    0.0000   -0.0035   -0.0218   -0.1089    0.0000
   39 O2     3py       -0.0027    0.0246    0.0000    1.4652   -0.0935    0.0000   -0.0077   -0.0038    0.3614   -0.0000
   40 O2     4py       -0.0003    0.0041    0.0000    0.1465   -0.0111    0.0000   -0.0003    0.0010    0.1843   -0.0000
   41 O2     2pz        0.0001    0.0001   -0.7885   -0.0000   -0.0000    0.1071   -0.0000    0.0000    0.0000    0.0080
   42 O2     3pz        0.0000    0.0000   -0.0753   -0.0000   -0.0000   -0.2514    0.0000    0.0000   -0.0000    0.0221
   43 O2     4pz        0.0000    0.0000   -0.0024    0.0000   -0.0000   -0.1696    0.0000    0.0000   -0.0000    0.0081
   44 O2     3d2-      -0.0052    0.0345    0.0000    0.1259   -0.0083    0.0000    0.0003    0.0024    0.0870   -0.0000
   45 O2     4d2-      -0.0009    0.0072    0.0000    0.0766   -0.0052    0.0000    0.0001    0.0015    0.0622   -0.0000
   46 O2     3d1-      -0.0000    0.0000   -0.0045   -0.0000   -0.0000    0.0007    0.0000    0.0000   -0.0000    0.0988
   47 O2     4d1-      -0.0000    0.0000   -0.0011    0.0000   -0.0000    0.0005   -0.0000   -0.0000    0.0000    0.0613
   48 O2     3d0       -0.0165   -0.0030   -0.0000   -0.0029   -0.0453    0.0000    0.0520   -0.1468    0.0017   -0.0000
   49 O2     4d0       -0.0018   -0.0003   -0.0000   -0.0019   -0.0326    0.0000    0.0249   -0.0691    0.0006   -0.0000
   50 O2     3d1+      -0.0000    0.0000    0.0005    0.0000    0.0000    0.0223   -0.0000   -0.0000    0.0000   -0.0003
   51 O2     4d1+      -0.0000    0.0000    0.0009    0.0000    0.0000    0.0102   -0.0000   -0.0000    0.0000   -0.0000
   52 O2     3d2+      -0.0343   -0.0047   -0.0000   -0.0031   -0.0521    0.0000    0.0949   -0.1111    0.0013   -0.0000
   53 O2     4d2+      -0.0056   -0.0008   -0.0000   -0.0021   -0.0355    0.0000    0.0412   -0.0341    0.0002   -0.0000
   54 O2     4f3-      -0.0013    0.0095    0.0000   -0.0095    0.0006   -0.0000    0.0002    0.0001   -0.0000   -0.0000
   55 O2     4f2-      -0.0000    0.0000   -0.0003   -0.0000   -0.0000    0.0001    0.0000   -0.0000    0.0000    0.0053
   56 O2     4f1-      -0.0001    0.0011    0.0000   -0.0102    0.0007   -0.0000    0.0000   -0.0001   -0.0090    0.0000
   57 O2     4f0        0.0000    0.0000    0.0009    0.0000    0.0000    0.0014    0.0000   -0.0000    0.0000   -0.0002
   58 O2     4f1+      -0.0008   -0.0000   -0.0000   -0.0002   -0.0032    0.0000    0.0025   -0.0064    0.0000   -0.0000
   59 O2     4f2+       0.0000   -0.0000    0.0012   -0.0000    0.0000    0.0016   -0.0000   -0.0000   -0.0000   -0.0002
   60 O2     4f3+      -0.0038   -0.0006   -0.0000   -0.0005   -0.0080    0.0000    0.0069   -0.0138   -0.0001   -0.0000
   61 O3     1s        -0.0033   -0.0033   -0.0000    0.2006   -0.1313    0.0000    0.0115   -0.0778    0.0169   -0.0000
   62 O3     2s         0.0003   -0.0670   -0.0000    1.4619   -1.0113    0.0000   -0.0007   -0.4623    0.0455   -0.0000
   63 O3     3s        -0.0144   -0.0078   -0.0000    0.8661   -0.5177    0.0000    0.1168   -0.5708    0.0335   -0.0000
   64 O3     4s        -0.0047   -0.0016   -0.0000    0.1963   -0.1041    0.0000    0.0359   -0.1561    0.0035   -0.0000
   65 O3     2px       -0.5776   -0.7464   -0.0002   -0.3579    0.1750   -0.0000    0.0736    0.0937    0.2012    0.0000
   66 O3     3px       -0.0107   -0.0030   -0.0000   -0.3600    0.2653   -0.0000   -0.3333   -0.0813    0.8027    0.0000
   67 O3     4px        0.0037    0.0067    0.0000   -0.0434    0.0663   -0.0000   -0.1645   -0.0805    0.3223   -0.0000
[...]

>>> COPY /tmp/ozone_136.00/GMJ_IVECC2_E_P_2_.csv /home/grierjones/DDCASPT2/ozone/multistate/ANO-RCC-VTZP/ozone_136.00/GMJ_IVECC2_E_P_2_.csv

>>> COPY /tmp/ozone_136.00/GMJ_e2_E_P_2_.csv /home/grierjones/DDCASPT2/ozone/multistate/ANO-RCC-VTZP/ozone_136.00/GMJ_e2_E_P_2_.csv

>>> END FOREACH

>>> EXPORT j = M

>>> IF (-FILE GMJ_e2_${i}_${j}_${k}_.csv)

>>> COPY /tmp/ozone_136.00/GMJ_RHS_E_M_2_.csv /home/grierjones/DDCASPT2/ozone/multistate/ANO-RCC-VTZP/ozone_136.00/GMJ_RHS_E_M_2_.csv

>>> COPY /tmp/ozone_136.00/GMJ_IVECW_E_M_2_.csv /home/grierjones/DDCASPT2/ozone/multistate/ANO-RCC-VTZP/ozone_136.00/GMJ_IVECW_E_M_2_.csv

>>> COPY /tmp/ozone_136.00/GMJ_IVECX_E_M_2_.csv /home/grierjones/DDCASPT2/ozone/multistate/ANO-RCC-VTZP/ozone_136.00/GMJ_IVECX_E_M_2_.csv

>>> COPY /tmp/ozone_136.00/GMJ_IVECC2_E_M_2_.csv /home/grierjones/DDCASPT2/ozone/multistate/ANO-RCC-VTZP/ozone_136.00/GMJ_IVECC2_E_M_2_.csv

>>> COPY /tmp/ozone_136.00/GMJ_e2_E_M_2_.csv /home/grierjones/DDCASPT2/ozone/multistate/ANO-RCC-VTZP/ozone_136.00/GMJ_e2_E_M_2_.csv

>>> END FOREACH

>>> END FOREACH

>>> EXPORT i = F

>>> EXPORT j = P

>>> IF (-FILE GMJ_e2_${i}_${j}_${k}_.csv)

>>> COPY /tmp/ozone_136.00/GMJ_RHS_F_P_2_.csv /home/grierjones/DDCASPT2/ozone/multistate/ANO-RCC-VTZP/ozone_136.00/GMJ_RHS_F_P_2_.csv

>>> COPY /tmp/ozone_136.00/GMJ_IVECW_F_P_2_.csv /home/grierjones/DDCASPT2/ozone/multistate/ANO-RCC-VTZP/ozone_136.00/GMJ_IVECW_F_P_2_.csv

>>> COPY /tmp/ozone_136.00/GMJ_IVECX_F_P_2_.csv /home/grierjones/DDCASPT2/ozone/multistate/ANO-RCC-VTZP/ozone_136.00/GMJ_IVECX_F_P_2_.csv

>>> COPY /tmp/ozone_136.00/GMJ_IVECC2_F_P_2_.csv /home/grierjones/DDCASPT2/ozone/multistate/ANO-RCC-VTZP/ozone_136.00/GMJ_IVECC2_F_P_2_.csv

>>> COPY /tmp/ozone_136.00/GMJ_e2_F_P_2_.csv /home/grierjones/DDCASPT2/ozone/multistate/ANO-RCC-VTZP/ozone_136.00/GMJ_e2_F_P_2_.csv

>>> END FOREACH

>>> EXPORT j = M

>>> IF (-FILE GMJ_e2_${i}_${j}_${k}_.csv)

>>> COPY /tmp/ozone_136.00/GMJ_RHS_F_M_2_.csv /home/grierjones/DDCASPT2/ozone/multistate/ANO-RCC-VTZP/ozone_136.00/GMJ_RHS_F_M_2_.csv

>>> COPY /tmp/ozone_136.00/GMJ_IVECW_F_M_2_.csv /home/grierjones/DDCASPT2/ozone/multistate/ANO-RCC-VTZP/ozone_136.00/GMJ_IVECW_F_M_2_.csv

>>> COPY /tmp/ozone_136.00/GMJ_IVECX_F_M_2_.csv /home/grierjones/DDCASPT2/ozone/multistate/ANO-RCC-VTZP/ozone_136.00/GMJ_IVECX_F_M_2_.csv

>>> COPY /tmp/ozone_136.00/GMJ_IVECC2_F_M_2_.csv /home/grierjones/DDCASPT2/ozone/multistate/ANO-RCC-VTZP/ozone_136.00/GMJ_IVECC2_F_M_2_.csv

>>> COPY /tmp/ozone_136.00/GMJ_e2_F_M_2_.csv /home/grierjones/DDCASPT2/ozone/multistate/ANO-RCC-VTZP/ozone_136.00/GMJ_e2_F_M_2_.csv

>>> END FOREACH

>>> END FOREACH

>>> EXPORT i = G

>>> EXPORT j = P

>>> IF (-FILE GMJ_e2_${i}_${j}_${k}_.csv)

>>> COPY /tmp/ozone_136.00/GMJ_RHS_G_P_2_.csv /home/grierjones/DDCASPT2/ozone/multistate/ANO-RCC-VTZP/ozone_136.00/GMJ_RHS_G_P_2_.csv

>>> COPY /tmp/ozone_136.00/GMJ_IVECW_G_P_2_.csv /home/grierjones/DDCASPT2/ozone/multistate/ANO-RCC-VTZP/ozone_136.00/GMJ_IVECW_G_P_2_.csv

>>> COPY /tmp/ozone_136.00/GMJ_IVECX_G_P_2_.csv /home/grierjones/DDCASPT2/ozone/multistate/ANO-RCC-VTZP/ozone_136.00/GMJ_IVECX_G_P_2_.csv

>>> COPY /tmp/ozone_136.00/GMJ_IVECC2_G_P_2_.csv /home/grierjones/DDCASPT2/ozone/multistate/ANO-RCC-VTZP/ozone_136.00/GMJ_IVECC2_G_P_2_.csv

>>> COPY /tmp/ozone_136.00/GMJ_e2_G_P_2_.csv /home/grierjones/DDCASPT2/ozone/multistate/ANO-RCC-VTZP/ozone_136.00/GMJ_e2_G_P_2_.csv

>>> END FOREACH

>>> EXPORT j = M

>>> IF (-FILE GMJ_e2_${i}_${j}_${k}_.csv)

>>> COPY /tmp/ozone_136.00/GMJ_RHS_G_M_2_.csv /home/grierjones/DDCASPT2/ozone/multistate/ANO-RCC-VTZP/ozone_136.00/GMJ_RHS_G_M_2_.csv

>>> COPY /tmp/ozone_136.00/GMJ_IVECW_G_M_2_.csv /home/grierjones/DDCASPT2/ozone/multistate/ANO-RCC-VTZP/ozone_136.00/GMJ_IVECW_G_M_2_.csv

>>> COPY /tmp/ozone_136.00/GMJ_IVECX_G_M_2_.csv /home/grierjones/DDCASPT2/ozone/multistate/ANO-RCC-VTZP/ozone_136.00/GMJ_IVECX_G_M_2_.csv

>>> COPY /tmp/ozone_136.00/GMJ_IVECC2_G_M_2_.csv /home/grierjones/DDCASPT2/ozone/multistate/ANO-RCC-VTZP/ozone_136.00/GMJ_IVECC2_G_M_2_.csv

>>> COPY /tmp/ozone_136.00/GMJ_e2_G_M_2_.csv /home/grierjones/DDCASPT2/ozone/multistate/ANO-RCC-VTZP/ozone_136.00/GMJ_e2_G_M_2_.csv

>>> END FOREACH

>>> END FOREACH

>>> EXPORT i = H

>>> EXPORT j = P

>>> IF (-FILE GMJ_e2_${i}_${j}_${k}_.csv)

>>> COPY /tmp/ozone_136.00/GMJ_RHS_H_P_2_.csv /home/grierjones/DDCASPT2/ozone/multistate/ANO-RCC-VTZP/ozone_136.00/GMJ_RHS_H_P_2_.csv

>>> COPY /tmp/ozone_136.00/GMJ_IVECW_H_P_2_.csv /home/grierjones/DDCASPT2/ozone/multistate/ANO-RCC-VTZP/ozone_136.00/GMJ_IVECW_H_P_2_.csv

>>> COPY /tmp/ozone_136.00/GMJ_IVECX_H_P_2_.csv /home/grierjones/DDCASPT2/ozone/multistate/ANO-RCC-VTZP/ozone_136.00/GMJ_IVECX_H_P_2_.csv

>>> COPY /tmp/ozone_136.00/GMJ_IVECC2_H_P_2_.csv /home/grierjones/DDCASPT2/ozone/multistate/ANO-RCC-VTZP/ozone_136.00/GMJ_IVECC2_H_P_2_.csv

>>> COPY /tmp/ozone_136.00/GMJ_e2_H_P_2_.csv /home/grierjones/DDCASPT2/ozone/multistate/ANO-RCC-VTZP/ozone_136.00/GMJ_e2_H_P_2_.csv

>>> END FOREACH

>>> EXPORT j = M

>>> IF (-FILE GMJ_e2_${i}_${j}_${k}_.csv)

>>> COPY /tmp/ozone_136.00/GMJ_RHS_H_M_2_.csv /home/grierjones/DDCASPT2/ozone/multistate/ANO-RCC-VTZP/ozone_136.00/GMJ_RHS_H_M_2_.csv

>>> COPY /tmp/ozone_136.00/GMJ_IVECW_H_M_2_.csv /home/grierjones/DDCASPT2/ozone/multistate/ANO-RCC-VTZP/ozone_136.00/GMJ_IVECW_H_M_2_.csv

>>> COPY /tmp/ozone_136.00/GMJ_IVECX_H_M_2_.csv /home/grierjones/DDCASPT2/ozone/multistate/ANO-RCC-VTZP/ozone_136.00/GMJ_IVECX_H_M_2_.csv

>>> COPY /tmp/ozone_136.00/GMJ_IVECC2_H_M_2_.csv /home/grierjones/DDCASPT2/ozone/multistate/ANO-RCC-VTZP/ozone_136.00/GMJ_IVECC2_H_M_2_.csv

>>> COPY /tmp/ozone_136.00/GMJ_e2_H_M_2_.csv /home/grierjones/DDCASPT2/ozone/multistate/ANO-RCC-VTZP/ozone_136.00/GMJ_e2_H_M_2_.csv

>>> END FOREACH

>>> END FOREACH

>>> END FOREACH

>>> EXPORT k = 3

>>> EXPORT i = B

>>> EXPORT j = P

>>> IF (-FILE GMJ_e2_${i}_${j}_${k}_.csv)

>>> COPY /tmp/ozone_136.00/GMJ_RHS_B_P_3_.csv /home/grierjones/DDCASPT2/ozone/multistate/ANO-RCC-VTZP/ozone_136.00/GMJ_RHS_B_P_3_.csv

>>> COPY /tmp/ozone_136.00/GMJ_IVECW_B_P_3_.csv /home/grierjones/DDCASPT2/ozone/multistate/ANO-RCC-VTZP/ozone_136.00/GMJ_IVECW_B_P_3_.csv

>>> COPY /tmp/ozone_136.00/GMJ_IVECX_B_P_3_.csv /home/grierjones/DDCASPT2/ozone/multistate/ANO-RCC-VTZP/ozone_136.00/GMJ_IVECX_B_P_3_.csv

>>> COPY /tmp/ozone_136.00/GMJ_IVECC2_B_P_3_.csv /home/grierjones/DDCASPT2/ozone/multistate/ANO-RCC-VTZP/ozone_136.00/GMJ_IVECC2_B_P_3_.csv

>>> COPY /tmp/ozone_136.00/GMJ_e2_B_P_3_.csv /home/grierjones/DDCASPT2/ozone/multistate/ANO-RCC-VTZP/ozone_136.00/GMJ_e2_B_P_3_.csv

>>> END FOREACH

>>> EXPORT j = M

>>> IF (-FILE GMJ_e2_${i}_${j}_${k}_.csv)
(Skipped)

>>> END FOREACH

>>> END FOREACH

>>> EXPORT i = E

>>> EXPORT j = P

>>> IF (-FILE GMJ_e2_${i}_${j}_${k}_.csv)

>>> COPY /tmp/ozone_136.00/GMJ_RHS_E_P_3_.csv /home/grierjones/DDCASPT2/ozone/multistate/ANO-RCC-VTZP/ozone_136.00/GMJ_RHS_E_P_3_.csv

>>> COPY /tmp/ozone_136.00/GMJ_IVECW_E_P_3_.csv /home/grierjones/DDCASPT2/ozone/multistate/ANO-RCC-VTZP/ozone_136.00/GMJ_IVECW_E_P_3_.csv

>>> COPY /tmp/ozone_136.00/GMJ_IVECX_E_P_3_.csv /home/grierjones/DDCASPT2/ozone/multistate/ANO-RCC-VTZP/ozone_136.00/GMJ_IVECX_E_P_3_.csv

>>> COPY /tmp/ozone_136.00/GMJ_IVECC2_E_P_3_.csv /home/grierjones/DDCASPT2/ozone/multistate/ANO-RCC-VTZP/ozone_136.00/GMJ_IVECC2_E_P_3_.csv

>>> COPY /tmp/ozone_136.00/GMJ_e2_E_P_3_.csv /home/grierjones/DDCASPT2/ozone/multistate/ANO-RCC-VTZP/ozone_136.00/GMJ_e2_E_P_3_.csv

>>> END FOREACH

>>> EXPORT j = M

>>> IF (-FILE GMJ_e2_${i}_${j}_${k}_.csv)

>>> COPY /tmp/ozone_136.00/GMJ_RHS_E_M_3_.csv /home/grierjones/DDCASPT2/ozone/multistate/ANO-RCC-VTZP/ozone_136.00/GMJ_RHS_E_M_3_.csv

>>> COPY /tmp/ozone_136.00/GMJ_IVECW_E_M_3_.csv /home/grierjones/DDCASPT2/ozone/multistate/ANO-RCC-VTZP/ozone_136.00/GMJ_IVECW_E_M_3_.csv

>>> COPY /tmp/ozone_136.00/GMJ_IVECX_E_M_3_.csv /home/grierjones/DDCASPT2/ozone/multistate/ANO-RCC-VTZP/ozone_136.00/GMJ_IVECX_E_M_3_.csv

>>> COPY /tmp/ozone_136.00/GMJ_IVECC2_E_M_3_.csv /home/grierjones/DDCASPT2/ozone/multistate/ANO-RCC-VTZP/ozone_136.00/GMJ_IVECC2_E_M_3_.csv

>>> COPY /tmp/ozone_136.00/GMJ_e2_E_M_3_.csv /home/grierjones/DDCASPT2/ozone/multistate/ANO-RCC-VTZP/ozone_136.00/GMJ_e2_E_M_3_.csv

>>> END FOREACH

>>> END FOREACH

>>> EXPORT i = F

>>> EXPORT j = P

>>> IF (-FILE GMJ_e2_${i}_${j}_${k}_.csv)

>>> COPY /tmp/ozone_136.00/GMJ_RHS_F_P_3_.csv /home/grierjones/DDCASPT2/ozone/multistate/ANO-RCC-VTZP/ozone_136.00/GMJ_RHS_F_P_3_.csv

>>> COPY /tmp/ozone_136.00/GMJ_IVECW_F_P_3_.csv /home/grierjones/DDCASPT2/ozone/multistate/ANO-RCC-VTZP/ozone_136.00/GMJ_IVECW_F_P_3_.csv

>>> COPY /tmp/ozone_136.00/GMJ_IVECX_F_P_3_.csv /home/grierjones/DDCASPT2/ozone/multistate/ANO-RCC-VTZP/ozone_136.00/GMJ_IVECX_F_P_3_.csv

>>> COPY /tmp/ozone_136.00/GMJ_IVECC2_F_P_3_.csv /home/grierjones/DDCASPT2/ozone/multistate/ANO-RCC-VTZP/ozone_136.00/GMJ_IVECC2_F_P_3_.csv

>>> COPY /tmp/ozone_136.00/GMJ_e2_F_P_3_.csv /home/grierjones/DDCASPT2/ozone/multistate/ANO-RCC-VTZP/ozone_136.00/GMJ_e2_F_P_3_.csv

>>> END FOREACH

>>> EXPORT j = M

>>> IF (-FILE GMJ_e2_${i}_${j}_${k}_.csv)

>>> COPY /tmp/ozone_136.00/GMJ_RHS_F_M_3_.csv /home/grierjones/DDCASPT2/ozone/multistate/ANO-RCC-VTZP/ozone_136.00/GMJ_RHS_F_M_3_.csv

>>> COPY /tmp/ozone_136.00/GMJ_IVECW_F_M_3_.csv /home/grierjones/DDCASPT2/ozone/multistate/ANO-RCC-VTZP/ozone_136.00/GMJ_IVECW_F_M_3_.csv

>>> COPY /tmp/ozone_136.00/GMJ_IVECX_F_M_3_.csv /home/grierjones/DDCASPT2/ozone/multistate/ANO-RCC-VTZP/ozone_136.00/GMJ_IVECX_F_M_3_.csv

>>> COPY /tmp/ozone_136.00/GMJ_IVECC2_F_M_3_.csv /home/grierjones/DDCASPT2/ozone/multistate/ANO-RCC-VTZP/ozone_136.00/GMJ_IVECC2_F_M_3_.csv

>>> COPY /tmp/ozone_136.00/GMJ_e2_F_M_3_.csv /home/grierjones/DDCASPT2/ozone/multistate/ANO-RCC-VTZP/ozone_136.00/GMJ_e2_F_M_3_.csv

>>> END FOREACH

>>> END FOREACH

>>> EXPORT i = G

>>> EXPORT j = P

>>> IF (-FILE GMJ_e2_${i}_${j}_${k}_.csv)

>>> COPY /tmp/ozone_136.00/GMJ_RHS_G_P_3_.csv /home/grierjones/DDCASPT2/ozone/multistate/ANO-RCC-VTZP/ozone_136.00/GMJ_RHS_G_P_3_.csv

>>> COPY /tmp/ozone_136.00/GMJ_IVECW_G_P_3_.csv /home/grierjones/DDCASPT2/ozone/multistate/ANO-RCC-VTZP/ozone_136.00/GMJ_IVECW_G_P_3_.csv

>>> COPY /tmp/ozone_136.00/GMJ_IVECX_G_P_3_.csv /home/grierjones/DDCASPT2/ozone/multistate/ANO-RCC-VTZP/ozone_136.00/GMJ_IVECX_G_P_3_.csv

>>> COPY /tmp/ozone_136.00/GMJ_IVECC2_G_P_3_.csv /home/grierjones/DDCASPT2/ozone/multistate/ANO-RCC-VTZP/ozone_136.00/GMJ_IVECC2_G_P_3_.csv

>>> COPY /tmp/ozone_136.00/GMJ_e2_G_P_3_.csv /home/grierjones/DDCASPT2/ozone/multistate/ANO-RCC-VTZP/ozone_136.00/GMJ_e2_G_P_3_.csv

>>> END FOREACH

>>> EXPORT j = M

>>> IF (-FILE GMJ_e2_${i}_${j}_${k}_.csv)

>>> COPY /tmp/ozone_136.00/GMJ_RHS_G_M_3_.csv /home/grierjones/DDCASPT2/ozone/multistate/ANO-RCC-VTZP/ozone_136.00/GMJ_RHS_G_M_3_.csv

>>> COPY /tmp/ozone_136.00/GMJ_IVECW_G_M_3_.csv /home/grierjones/DDCASPT2/ozone/multistate/ANO-RCC-VTZP/ozone_136.00/GMJ_IVECW_G_M_3_.csv

>>> COPY /tmp/ozone_136.00/GMJ_IVECX_G_M_3_.csv /home/grierjones/DDCASPT2/ozone/multistate/ANO-RCC-VTZP/ozone_136.00/GMJ_IVECX_G_M_3_.csv

>>> COPY /tmp/ozone_136.00/GMJ_IVECC2_G_M_3_.csv /home/grierjones/DDCASPT2/ozone/multistate/ANO-RCC-VTZP/ozone_136.00/GMJ_IVECC2_G_M_3_.csv

>>> COPY /tmp/ozone_136.00/GMJ_e2_G_M_3_.csv /home/grierjones/DDCASPT2/ozone/multistate/ANO-RCC-VTZP/ozone_136.00/GMJ_e2_G_M_3_.csv

>>> END FOREACH

>>> END FOREACH

>>> EXPORT i = H

>>> EXPORT j = P

>>> IF (-FILE GMJ_e2_${i}_${j}_${k}_.csv)

>>> COPY /tmp/ozone_136.00/GMJ_RHS_H_P_3_.csv /home/grierjones/DDCASPT2/ozone/multistate/ANO-RCC-VTZP/ozone_136.00/GMJ_RHS_H_P_3_.csv

>>> COPY /tmp/ozone_136.00/GMJ_IVECW_H_P_3_.csv /home/grierjones/DDCASPT2/ozone/multistate/ANO-RCC-VTZP/ozone_136.00/GMJ_IVECW_H_P_3_.csv

>>> COPY /tmp/ozone_136.00/GMJ_IVECX_H_P_3_.csv /home/grierjones/DDCASPT2/ozone/multistate/ANO-RCC-VTZP/ozone_136.00/GMJ_IVECX_H_P_3_.csv

>>> COPY /tmp/ozone_136.00/GMJ_IVECC2_H_P_3_.csv /home/grierjones/DDCASPT2/ozone/multistate/ANO-RCC-VTZP/ozone_136.00/GMJ_IVECC2_H_P_3_.csv

>>> COPY /tmp/ozone_136.00/GMJ_e2_H_P_3_.csv /home/grierjones/DDCASPT2/ozone/multistate/ANO-RCC-VTZP/ozone_136.00/GMJ_e2_H_P_3_.csv

>>> END FOREACH

>>> EXPORT j = M

>>> IF (-FILE GMJ_e2_${i}_${j}_${k}_.csv)

>>> COPY /tmp/ozone_136.00/GMJ_RHS_H_M_3_.csv /home/grierjones/DDCASPT2/ozone/multistate/ANO-RCC-VTZP/ozone_136.00/GMJ_RHS_H_M_3_.csv

>>> COPY /tmp/ozone_136.00/GMJ_IVECW_H_M_3_.csv /home/grierjones/DDCASPT2/ozone/multistate/ANO-RCC-VTZP/ozone_136.00/GMJ_IVECW_H_M_3_.csv

>>> COPY /tmp/ozone_136.00/GMJ_IVECX_H_M_3_.csv /home/grierjones/DDCASPT2/ozone/multistate/ANO-RCC-VTZP/ozone_136.00/GMJ_IVECX_H_M_3_.csv

>>> COPY /tmp/ozone_136.00/GMJ_IVECC2_H_M_3_.csv /home/grierjones/DDCASPT2/ozone/multistate/ANO-RCC-VTZP/ozone_136.00/GMJ_IVECC2_H_M_3_.csv

>>> COPY /tmp/ozone_136.00/GMJ_e2_H_M_3_.csv /home/grierjones/DDCASPT2/ozone/multistate/ANO-RCC-VTZP/ozone_136.00/GMJ_e2_H_M_3_.csv

>>> END FOREACH

>>> END FOREACH

>>> END FOREACH

>>> EXPORT j = 1

>>> EXPORT i = A

>>> IF (-FILE GMJ_e2_${i}_${j}_.csv)

>>> COPY /tmp/ozone_136.00/GMJ_RHS_A_1_.csv /home/grierjones/DDCASPT2/ozone/multistate/ANO-RCC-VTZP/ozone_136.00/GMJ_RHS_A_1_.csv

>>> COPY /tmp/ozone_136.00/GMJ_IVECW_A_1_.csv /home/grierjones/DDCASPT2/ozone/multistate/ANO-RCC-VTZP/ozone_136.00/GMJ_IVECW_A_1_.csv

>>> COPY /tmp/ozone_136.00/GMJ_IVECX_A_1_.csv /home/grierjones/DDCASPT2/ozone/multistate/ANO-RCC-VTZP/ozone_136.00/GMJ_IVECX_A_1_.csv

>>> COPY /tmp/ozone_136.00/GMJ_IVECC2_A_1_.csv /home/grierjones/DDCASPT2/ozone/multistate/ANO-RCC-VTZP/ozone_136.00/GMJ_IVECC2_A_1_.csv

>>> COPY /tmp/ozone_136.00/GMJ_e2_A_1_.csv /home/grierjones/DDCASPT2/ozone/multistate/ANO-RCC-VTZP/ozone_136.00/GMJ_e2_A_1_.csv

>>> END FOREACH

>>> EXPORT i = C

>>> IF (-FILE GMJ_e2_${i}_${j}_.csv)

>>> COPY /tmp/ozone_136.00/GMJ_RHS_C_1_.csv /home/grierjones/DDCASPT2/ozone/multistate/ANO-RCC-VTZP/ozone_136.00/GMJ_RHS_C_1_.csv

>>> COPY /tmp/ozone_136.00/GMJ_IVECW_C_1_.csv /home/grierjones/DDCASPT2/ozone/multistate/ANO-RCC-VTZP/ozone_136.00/GMJ_IVECW_C_1_.csv

>>> COPY /tmp/ozone_136.00/GMJ_IVECX_C_1_.csv /home/grierjones/DDCASPT2/ozone/multistate/ANO-RCC-VTZP/ozone_136.00/GMJ_IVECX_C_1_.csv

>>> COPY /tmp/ozone_136.00/GMJ_IVECC2_C_1_.csv /home/grierjones/DDCASPT2/ozone/multistate/ANO-RCC-VTZP/ozone_136.00/GMJ_IVECC2_C_1_.csv

>>> COPY /tmp/ozone_136.00/GMJ_e2_C_1_.csv /home/grierjones/DDCASPT2/ozone/multistate/ANO-RCC-VTZP/ozone_136.00/GMJ_e2_C_1_.csv

>>> END FOREACH

>>> EXPORT i = D

>>> IF (-FILE GMJ_e2_${i}_${j}_.csv)

>>> COPY /tmp/ozone_136.00/GMJ_RHS_D_1_.csv /home/grierjones/DDCASPT2/ozone/multistate/ANO-RCC-VTZP/ozone_136.00/GMJ_RHS_D_1_.csv

>>> COPY /tmp/ozone_136.00/GMJ_IVECW_D_1_.csv /home/grierjones/DDCASPT2/ozone/multistate/ANO-RCC-VTZP/ozone_136.00/GMJ_IVECW_D_1_.csv

>>> COPY /tmp/ozone_136.00/GMJ_IVECX_D_1_.csv /home/grierjones/DDCASPT2/ozone/multistate/ANO-RCC-VTZP/ozone_136.00/GMJ_IVECX_D_1_.csv

>>> COPY /tmp/ozone_136.00/GMJ_IVECC2_D_1_.csv /home/grierjones/DDCASPT2/ozone/multistate/ANO-RCC-VTZP/ozone_136.00/GMJ_IVECC2_D_1_.csv

>>> COPY /tmp/ozone_136.00/GMJ_e2_D_1_.csv /home/grierjones/DDCASPT2/ozone/multistate/ANO-RCC-VTZP/ozone_136.00/GMJ_e2_D_1_.csv

>>> END FOREACH

>>> END FOREACH

>>> EXPORT j = 2

>>> EXPORT i = A

>>> IF (-FILE GMJ_e2_${i}_${j}_.csv)

>>> COPY /tmp/ozone_136.00/GMJ_RHS_A_2_.csv /home/grierjones/DDCASPT2/ozone/multistate/ANO-RCC-VTZP/ozone_136.00/GMJ_RHS_A_2_.csv

>>> COPY /tmp/ozone_136.00/GMJ_IVECW_A_2_.csv /home/grierjones/DDCASPT2/ozone/multistate/ANO-RCC-VTZP/ozone_136.00/GMJ_IVECW_A_2_.csv

>>> COPY /tmp/ozone_136.00/GMJ_IVECX_A_2_.csv /home/grierjones/DDCASPT2/ozone/multistate/ANO-RCC-VTZP/ozone_136.00/GMJ_IVECX_A_2_.csv

>>> COPY /tmp/ozone_136.00/GMJ_IVECC2_A_2_.csv /home/grierjones/DDCASPT2/ozone/multistate/ANO-RCC-VTZP/ozone_136.00/GMJ_IVECC2_A_2_.csv

>>> COPY /tmp/ozone_136.00/GMJ_e2_A_2_.csv /home/grierjones/DDCASPT2/ozone/multistate/ANO-RCC-VTZP/ozone_136.00/GMJ_e2_A_2_.csv

>>> END FOREACH

>>> EXPORT i = C

>>> IF (-FILE GMJ_e2_${i}_${j}_.csv)

>>> COPY /tmp/ozone_136.00/GMJ_RHS_C_2_.csv /home/grierjones/DDCASPT2/ozone/multistate/ANO-RCC-VTZP/ozone_136.00/GMJ_RHS_C_2_.csv

>>> COPY /tmp/ozone_136.00/GMJ_IVECW_C_2_.csv /home/grierjones/DDCASPT2/ozone/multistate/ANO-RCC-VTZP/ozone_136.00/GMJ_IVECW_C_2_.csv

>>> COPY /tmp/ozone_136.00/GMJ_IVECX_C_2_.csv /home/grierjones/DDCASPT2/ozone/multistate/ANO-RCC-VTZP/ozone_136.00/GMJ_IVECX_C_2_.csv

>>> COPY /tmp/ozone_136.00/GMJ_IVECC2_C_2_.csv /home/grierjones/DDCASPT2/ozone/multistate/ANO-RCC-VTZP/ozone_136.00/GMJ_IVECC2_C_2_.csv

>>> COPY /tmp/ozone_136.00/GMJ_e2_C_2_.csv /home/grierjones/DDCASPT2/ozone/multistate/ANO-RCC-VTZP/ozone_136.00/GMJ_e2_C_2_.csv

>>> END FOREACH

>>> EXPORT i = D

>>> IF (-FILE GMJ_e2_${i}_${j}_.csv)

>>> COPY /tmp/ozone_136.00/GMJ_RHS_D_2_.csv /home/grierjones/DDCASPT2/ozone/multistate/ANO-RCC-VTZP/ozone_136.00/GMJ_RHS_D_2_.csv

>>> COPY /tmp/ozone_136.00/GMJ_IVECW_D_2_.csv /home/grierjones/DDCASPT2/ozone/multistate/ANO-RCC-VTZP/ozone_136.00/GMJ_IVECW_D_2_.csv

>>> COPY /tmp/ozone_136.00/GMJ_IVECX_D_2_.csv /home/grierjones/DDCASPT2/ozone/multistate/ANO-RCC-VTZP/ozone_136.00/GMJ_IVECX_D_2_.csv

>>> COPY /tmp/ozone_136.00/GMJ_IVECC2_D_2_.csv /home/grierjones/DDCASPT2/ozone/multistate/ANO-RCC-VTZP/ozone_136.00/GMJ_IVECC2_D_2_.csv

>>> COPY /tmp/ozone_136.00/GMJ_e2_D_2_.csv /home/grierjones/DDCASPT2/ozone/multistate/ANO-RCC-VTZP/ozone_136.00/GMJ_e2_D_2_.csv

>>> END FOREACH

>>> END FOREACH

>>> EXPORT j = 3

>>> EXPORT i = A

>>> IF (-FILE GMJ_e2_${i}_${j}_.csv)

>>> COPY /tmp/ozone_136.00/GMJ_RHS_A_3_.csv /home/grierjones/DDCASPT2/ozone/multistate/ANO-RCC-VTZP/ozone_136.00/GMJ_RHS_A_3_.csv

>>> COPY /tmp/ozone_136.00/GMJ_IVECW_A_3_.csv /home/grierjones/DDCASPT2/ozone/multistate/ANO-RCC-VTZP/ozone_136.00/GMJ_IVECW_A_3_.csv

>>> COPY /tmp/ozone_136.00/GMJ_IVECX_A_3_.csv /home/grierjones/DDCASPT2/ozone/multistate/ANO-RCC-VTZP/ozone_136.00/GMJ_IVECX_A_3_.csv

>>> COPY /tmp/ozone_136.00/GMJ_IVECC2_A_3_.csv /home/grierjones/DDCASPT2/ozone/multistate/ANO-RCC-VTZP/ozone_136.00/GMJ_IVECC2_A_3_.csv

>>> COPY /tmp/ozone_136.00/GMJ_e2_A_3_.csv /home/grierjones/DDCASPT2/ozone/multistate/ANO-RCC-VTZP/ozone_136.00/GMJ_e2_A_3_.csv

>>> END FOREACH

>>> EXPORT i = C

>>> IF (-FILE GMJ_e2_${i}_${j}_.csv)

>>> COPY /tmp/ozone_136.00/GMJ_RHS_C_3_.csv /home/grierjones/DDCASPT2/ozone/multistate/ANO-RCC-VTZP/ozone_136.00/GMJ_RHS_C_3_.csv

>>> COPY /tmp/ozone_136.00/GMJ_IVECW_C_3_.csv /home/grierjones/DDCASPT2/ozone/multistate/ANO-RCC-VTZP/ozone_136.00/GMJ_IVECW_C_3_.csv

>>> COPY /tmp/ozone_136.00/GMJ_IVECX_C_3_.csv /home/grierjones/DDCASPT2/ozone/multistate/ANO-RCC-VTZP/ozone_136.00/GMJ_IVECX_C_3_.csv

>>> COPY /tmp/ozone_136.00/GMJ_IVECC2_C_3_.csv /home/grierjones/DDCASPT2/ozone/multistate/ANO-RCC-VTZP/ozone_136.00/GMJ_IVECC2_C_3_.csv

>>> COPY /tmp/ozone_136.00/GMJ_e2_C_3_.csv /home/grierjones/DDCASPT2/ozone/multistate/ANO-RCC-VTZP/ozone_136.00/GMJ_e2_C_3_.csv

>>> END FOREACH

>>> EXPORT i = D

>>> IF (-FILE GMJ_e2_${i}_${j}_.csv)

>>> COPY /tmp/ozone_136.00/GMJ_RHS_D_3_.csv /home/grierjones/DDCASPT2/ozone/multistate/ANO-RCC-VTZP/ozone_136.00/GMJ_RHS_D_3_.csv

>>> COPY /tmp/ozone_136.00/GMJ_IVECW_D_3_.csv /home/grierjones/DDCASPT2/ozone/multistate/ANO-RCC-VTZP/ozone_136.00/GMJ_IVECW_D_3_.csv

>>> COPY /tmp/ozone_136.00/GMJ_IVECX_D_3_.csv /home/grierjones/DDCASPT2/ozone/multistate/ANO-RCC-VTZP/ozone_136.00/GMJ_IVECX_D_3_.csv

>>> COPY /tmp/ozone_136.00/GMJ_IVECC2_D_3_.csv /home/grierjones/DDCASPT2/ozone/multistate/ANO-RCC-VTZP/ozone_136.00/GMJ_IVECC2_D_3_.csv

>>> COPY /tmp/ozone_136.00/GMJ_e2_D_3_.csv /home/grierjones/DDCASPT2/ozone/multistate/ANO-RCC-VTZP/ozone_136.00/GMJ_e2_D_3_.csv

>>> END FOREACH

>>> END FOREACH

.########################.
.# Non-zero return code #.
.########################.

    Timing: Wall=24.59 User=16.09 System=8.49
********************************************
*** WorkDir at /tmp/ozone_136.00 cleaned ***
********************************************
