[Molden Format]
[N_Atoms]
                     2
[Atoms] (AU)
N1          1      7           0.00000000      0.00000000      0.00000000
N2          2      7           0.00000000      0.00000000      1.88972612
[Charge] (Mulliken)
   1.00000000000007     
  0.999999999999906     
[GTO] (AU)
   1
   s  14
  7.476171500E+04  1.182599996E-04
  1.112365400E+04  5.172899983E-04
  2.512685700E+03  2.266659992E-03
  7.037772900E+02  9.145289970E-03
  2.254787900E+02  3.239342989E-02
  7.961581000E+01  9.770792967E-02
  3.023728300E+01  2.317036792E-01
  1.226362200E+01  3.768898887E-01
  5.265086000E+00  3.177420689E-01
  2.333471000E+00  8.211308973E-02
  9.018560000E-01  3.312089989E-03
  3.583360000E-01  3.720819988E-03
  1.410930000E-01  3.165419989E-03
  4.938300000E-02  4.595799985E-04
   s  14
  7.476171500E+04 -2.707000010E-05
  1.112365400E+04 -1.183700004E-04
  2.512685700E+03 -5.203800020E-04
  7.037772900E+02 -2.102930008E-03
  2.254787900E+02 -7.568200028E-03
  7.961581000E+01 -2.346767009E-02
  3.023728300E+01 -6.042901023E-02
  1.226362200E+01 -1.170549104E-01
  5.265086000E+00 -1.555321506E-01
  2.333471000E+00 -2.468935009E-02
  9.018560000E-01  3.625054514E-01
  3.583360000E-01  5.550845021E-01
  1.410930000E-01  2.148376908E-01
  4.938300000E-02  8.983850034E-03
   p   9
  1.266665700E+02  1.233630000E-03
  2.983738900E+01  9.493409996E-03
  9.394038000E+00  4.293961998E-02
  3.405104000E+00  1.362925399E-01
  1.350000000E+00  2.921362499E-01
  5.576960000E-01  3.887887598E-01
  2.324490000E-01  2.946801399E-01
  9.426400000E-02  8.012875997E-02
  3.299200000E-02  5.405199998E-04
 
   2
   s  14
  7.476171500E+04  1.182599996E-04
  1.112365400E+04  5.172899983E-04
  2.512685700E+03  2.266659992E-03
  7.037772900E+02  9.145289970E-03
  2.254787900E+02  3.239342989E-02
  7.961581000E+01  9.770792967E-02
  3.023728300E+01  2.317036792E-01
  1.226362200E+01  3.768898887E-01
  5.265086000E+00  3.177420689E-01
  2.333471000E+00  8.211308973E-02
  9.018560000E-01  3.312089989E-03
  3.583360000E-01  3.720819988E-03
  1.410930000E-01  3.165419989E-03
  4.938300000E-02  4.595799985E-04
   s  14
  7.476171500E+04 -2.707000010E-05
  1.112365400E+04 -1.183700004E-04
  2.512685700E+03 -5.203800020E-04
  7.037772900E+02 -2.102930008E-03
  2.254787900E+02 -7.568200028E-03
  7.961581000E+01 -2.346767009E-02
  3.023728300E+01 -6.042901023E-02
  1.226362200E+01 -1.170549104E-01
  5.265086000E+00 -1.555321506E-01
  2.333471000E+00 -2.468935009E-02
  9.018560000E-01  3.625054514E-01
  3.583360000E-01  5.550845021E-01
  1.410930000E-01  2.148376908E-01
  4.938300000E-02  8.983850034E-03
   p   9
  1.266665700E+02  1.233630000E-03
  2.983738900E+01  9.493409996E-03
  9.394038000E+00  4.293961998E-02
  3.405104000E+00  1.362925399E-01
  1.350000000E+00  2.921362499E-01
  5.576960000E-01  3.887887598E-01
  2.324490000E-01  2.946801399E-01
  9.426400000E-02  8.012875997E-02
  3.299200000E-02  5.405199998E-04
 
[MO]
Sym=     1a  
Ene=   -17.2220
Spin= Alpha
Occup=    2.00000
   1         0.70660757
   2        -0.00538993
   3         0.00000000
   4        -0.00000000
   5         0.00235997
   6         0.70660757
   7        -0.00538993
   8         0.00000000
   9        -0.00000000
  10        -0.00235997
Sym=     2a  
Ene=   -17.2170
Spin= Alpha
Occup=    2.00000
   1        -0.70774353
   2         0.00344995
   3         0.00000000
   4        -0.00000000
   5        -0.00260431
   6         0.70774353
   7        -0.00344995
   8         0.00000000
   9        -0.00000000
  10        -0.00260431
Sym=     3a  
Ene=    -2.6684
Spin= Alpha
Occup=    2.00000
   1         0.06754315
   2        -0.39941233
   3        -0.00000000
   4         0.00000000
   5        -0.33609913
   6         0.06754315
   7        -0.39941233
   8        -0.00000000
   9         0.00000000
  10         0.33609913
Sym=     4a  
Ene=    -1.7084
Spin= Alpha
Occup=    2.00000
   1         0.00000000
   2         0.00000000
   3         0.55630043
   4         0.22992162
   5        -0.00000000
   6         0.00000000
   7         0.00000000
   8         0.55630043
   9         0.22992162
  10         0.00000000
Sym=     5a  
Ene=    -1.7084
Spin= Alpha
Occup=    2.00000
   1        -0.00000000
   2         0.00000000
   3        -0.22992162
   4         0.55630043
   5         0.00000000
   6        -0.00000000
   7        -0.00000000
   8        -0.22992162
   9         0.55630043
  10        -0.00000000
Sym=     6a  
Ene=    -1.3405
Spin= Alpha
Occup=    0.58859
   1         0.04381471
   2         0.46656293
   3        -0.00000000
   4        -0.00000000
   5        -0.60840258
   6         0.04381471
   7         0.46656293
   8        -0.00000000
   9        -0.00000000
  10         0.60840258
Sym=     7a  
Ene=    -0.0129
Spin= Alpha
Occup=    1.41141
   1        -0.02227826
   2        -0.70181543
   3         0.00000000
   4        -0.00000000
   5         0.29027525
   6         0.02227826
   7         0.70181543
   8        -0.00000000
   9         0.00000000
  10         0.29027525
Sym=     8a  
Ene=    -0.8299
Spin= Alpha
Occup=    0.00000
   1        -0.00000000
   2        -0.00000000
   3        -0.87701631
   4        -0.19292050
   5        -0.00000000
   6         0.00000000
   7         0.00000000
   8         0.87701631
   9         0.19292050
  10        -0.00000000
Sym=     9a  
Ene=    -0.8299
Spin= Alpha
Occup=    0.00000
   1         0.00000000
   2         0.00000000
   3         0.19292050
   4        -0.87701631
   5         0.00000000
   6        -0.00000000
   7        -0.00000000
   8        -0.19292050
   9         0.87701631
  10         0.00000000
Sym=    10a  
Ene=     0.1693
Spin= Alpha
Occup=    0.00000
   1         0.27143062
   2         1.52335051
   3        -0.00000000
   4        -0.00000000
   5         1.27099379
   6        -0.27143062
   7        -1.52335051
   8         0.00000000
   9        -0.00000000
  10         1.27099379
