[Molden Format]
[N_Atoms]
                     2
[Atoms] (AU)
N1          1      7           0.00000000      0.00000000      0.00000000
N2          2      7           0.00000000      0.00000000      1.88972612
[Charge] (Mulliken)
  3.197442310920451E-014
 -5.417888360170764E-014
[GTO] (AU)
   1
   s  14
  7.476171500E+04  1.182599996E-04
  1.112365400E+04  5.172899983E-04
  2.512685700E+03  2.266659992E-03
  7.037772900E+02  9.145289970E-03
  2.254787900E+02  3.239342989E-02
  7.961581000E+01  9.770792967E-02
  3.023728300E+01  2.317036792E-01
  1.226362200E+01  3.768898887E-01
  5.265086000E+00  3.177420689E-01
  2.333471000E+00  8.211308973E-02
  9.018560000E-01  3.312089989E-03
  3.583360000E-01  3.720819988E-03
  1.410930000E-01  3.165419989E-03
  4.938300000E-02  4.595799985E-04
   s  14
  7.476171500E+04 -2.707000010E-05
  1.112365400E+04 -1.183700004E-04
  2.512685700E+03 -5.203800020E-04
  7.037772900E+02 -2.102930008E-03
  2.254787900E+02 -7.568200028E-03
  7.961581000E+01 -2.346767009E-02
  3.023728300E+01 -6.042901023E-02
  1.226362200E+01 -1.170549104E-01
  5.265086000E+00 -1.555321506E-01
  2.333471000E+00 -2.468935009E-02
  9.018560000E-01  3.625054514E-01
  3.583360000E-01  5.550845021E-01
  1.410930000E-01  2.148376908E-01
  4.938300000E-02  8.983850034E-03
   p   9
  1.266665700E+02  1.233630000E-03
  2.983738900E+01  9.493409996E-03
  9.394038000E+00  4.293961998E-02
  3.405104000E+00  1.362925399E-01
  1.350000000E+00  2.921362499E-01
  5.576960000E-01  3.887887598E-01
  2.324490000E-01  2.946801399E-01
  9.426400000E-02  8.012875997E-02
  3.299200000E-02  5.405199998E-04
 
   2
   s  14
  7.476171500E+04  1.182599996E-04
  1.112365400E+04  5.172899983E-04
  2.512685700E+03  2.266659992E-03
  7.037772900E+02  9.145289970E-03
  2.254787900E+02  3.239342989E-02
  7.961581000E+01  9.770792967E-02
  3.023728300E+01  2.317036792E-01
  1.226362200E+01  3.768898887E-01
  5.265086000E+00  3.177420689E-01
  2.333471000E+00  8.211308973E-02
  9.018560000E-01  3.312089989E-03
  3.583360000E-01  3.720819988E-03
  1.410930000E-01  3.165419989E-03
  4.938300000E-02  4.595799985E-04
   s  14
  7.476171500E+04 -2.707000010E-05
  1.112365400E+04 -1.183700004E-04
  2.512685700E+03 -5.203800020E-04
  7.037772900E+02 -2.102930008E-03
  2.254787900E+02 -7.568200028E-03
  7.961581000E+01 -2.346767009E-02
  3.023728300E+01 -6.042901023E-02
  1.226362200E+01 -1.170549104E-01
  5.265086000E+00 -1.555321506E-01
  2.333471000E+00 -2.468935009E-02
  9.018560000E-01  3.625054514E-01
  3.583360000E-01  5.550845021E-01
  1.410930000E-01  2.148376908E-01
  4.938300000E-02  8.983850034E-03
   p   9
  1.266665700E+02  1.233630000E-03
  2.983738900E+01  9.493409996E-03
  9.394038000E+00  4.293961998E-02
  3.405104000E+00  1.362925399E-01
  1.350000000E+00  2.921362499E-01
  5.576960000E-01  3.887887598E-01
  2.324490000E-01  2.946801399E-01
  9.426400000E-02  8.012875997E-02
  3.299200000E-02  5.405199998E-04
 
[MO]
Sym=     1a  
Ene=   -15.8600
Spin= Alpha
Occup=    2.00000
   1         0.70645164
   2        -0.00459158
   3         0.00000000
   4        -0.00000000
   5         0.00318871
   6         0.70645164
   7        -0.00459158
   8         0.00000000
   9        -0.00000000
  10        -0.00318871
Sym=     2a  
Ene=   -15.8490
Spin= Alpha
Occup=    2.00000
   1        -0.70786094
   2         0.01141922
   3        -0.00000000
   4        -0.00000000
   5        -0.00982637
   6         0.70786094
   7        -0.01141922
   8         0.00000000
   9        -0.00000000
  10        -0.00982637
Sym=     3a  
Ene=    -1.6425
Spin= Alpha
Occup=    2.00000
   1         0.06630408
   2        -0.42688761
   3        -0.00000000
   4         0.00000000
   5        -0.29871308
   6         0.06630408
   7        -0.42688761
   8        -0.00000000
   9         0.00000000
  10         0.29871308
Sym=     4a  
Ene=    -0.7370
Spin= Alpha
Occup=    2.00000
   1         0.00000000
   2         0.00000000
   3         0.60066640
   4         0.03916631
   5        -0.00000000
   6         0.00000000
   7         0.00000000
   8         0.60066640
   9         0.03916631
  10         0.00000000
Sym=     5a  
Ene=    -0.7367
Spin= Alpha
Occup=    2.00000
   1        -0.00000000
   2        -0.00000000
   3        -0.03916631
   4         0.60066640
   5         0.00000000
   6        -0.00000000
   7        -0.00000000
   8        -0.03916631
   9         0.60066640
  10        -0.00000000
Sym=     6a  
Ene=    -0.6655
Spin= Alpha
Occup=    2.00000
   1         0.04802001
   2         0.44157232
   3        -0.00000000
   4         0.00000000
   5        -0.62760037
   6         0.04802001
   7         0.44157232
   8        -0.00000000
   9         0.00000000
  10         0.62760037
Sym=     7a  
Ene=    -0.7977
Spin= Alpha
Occup=    1.99101
   1        -0.03217155
   2        -0.69425453
   3         0.00000000
   4         0.00000000
   5         0.29637637
   6         0.03217155
   7         0.69425453
   8        -0.00000000
   9         0.00000000
  10         0.29637637
Sym=     8a  
Ene=     0.0000
Spin= Alpha
Occup=    0.00899
   1        -0.00000000
   2        -0.00000000
   3        -0.89608147
   4        -0.05842878
   5         0.00000000
   6         0.00000000
   7         0.00000000
   8         0.89608147
   9         0.05842878
  10         0.00000000
Sym=     9a  
Ene=     0.2102
Spin= Alpha
Occup=    0.00000
   1         0.00000000
   2         0.00000000
   3         0.05842878
   4        -0.89608147
   5        -0.00000000
   6        -0.00000000
   7        -0.00000000
   8        -0.05842878
   9         0.89608147
  10         0.00000000
Sym=    10a  
Ene=     1.2714
Spin= Alpha
Occup=    0.00000
   1         0.27012901
   2         1.52677235
   3        -0.00000000
   4        -0.00000000
   5         1.26954961
   6        -0.27012901
   7        -1.52677235
   8         0.00000000
   9        -0.00000000
  10         1.26954961
