*******************************************************************************************
*** WorkDir at /lustre/isaac/scratch/gjones39/ANO-RCC-VTZP/ozone_145.75/3189875 cleaned ***
*******************************************************************************************
   This run of MOLCAS is using the pymolcas driver

                             OPE
                             OPE          NMOL  CASOP  ENMOLC A   SO
                 OPE        NMOLC        AS  OP EN  MO LC     AS  OP
                OPENM       OL CA        SO  PE NM  OL CA     SOP EN
                OP EN      MO   LC       AS  OP ENMOL  CASO   PENMOL
                OP  EN     MO   LC       AS  OP EN     MO     LC ASO
               OP   E  NMOL  C  AS       OP  EN MO     LC     AS  OP
               OP  E   NMO   LC AS        OPEN  MO     LCASOP EN   M
               O  PEN   MO  LCA  SO
            OPE   NMO   L   CAS    OP
        OPENMOL  CASOP     ENMOL   CASOPE
     OPENMOLCA   SOPENMOLCASOPEN   MOLCASOPE
    OPENMOLCAS   OP           EN   MOL    CAS
    OPENMOLCAS       OP  ENM        O     LCA
    OPENMOLCAS    OPEN  MOLCASO     P  E  NMO
    OPENMOLCAS     OP               E  N  MOL
    OPENMOLCA   SO           PENM   O  L  CAS    OPEN    MO    LCAS
    OPENMOLCA   SOP           ENM   O  L  CAS   OP  EN  MOLC  AS   O
    OPENMOLCA   SOPE           NM      O  LCA   S      OP  EN MO
    OPENMOLC                AS         O  PEN   M      OL  CA  SOPE
    OPENMO        LCASOPE  NMOL        C  ASO   P      ENMOLC     AS
    OPE     NMO      LCA  SO     P     E   NM   OL  CA SO  PE N   MO
          OPENMOLCA            SOPE   NMO        LCAS  O    P  ENMO
     OPENMOLCASOPENMOLCASOPENMOLCASOPENMOLCA
        OPENMOLCASOPENMOLCASOPENMOLCASOPE
            OPENMOLCASOPENMOLCASOPENM
               OPENMOLCASOPENMOLCA        version: f37762c57-dirty
                   OPENMOLCASO
                       OPE                tag:

 OpenMolcas is free software; you can redistribute it and/or modify it
 under the terms of the GNU Lesser General Public License version 2.1.
 OpenMolcas is distributed in the hope that it will be useful, but it
 is provided "as is" and without any express or implied warranties.
 For more details see the full text of the license in the file
 LICENSE or in <http://www.gnu.org/licenses/>.

                 Copyright (C) The OpenMolcas Authors
           For the author list and the recommended citation,
                   consult the file CONTRIBUTORS.md

           *************************************************
           * pymolcas version py2.05                       *
           *   build c53fbf9a0f911de0c7c16766b0715e61      *
           *   (after the EMIL interpreter by V. Veryazov) *
           *************************************************

configuration info
------------------
C Compiler ID: GNU
C flags: -std=gnu99
Fortran Compiler ID: Intel
Fortran flags: -fpp -i8 -r8 -heap-arrays
Definitions: _MOLCAS_;_I8_;_LINUX_
Parallel: OFF (GA=OFF)


   ---------------------------------------------------------------------------------------
  |
  |              Project: ozone_145.75
  |       Submitted from: /lustre/isaac/scratch/gjones39/ANO-RCC-VTZP/ozone_145.75
  |         Scratch area: /lustre/isaac/scratch/gjones39/ANO-RCC-VTZP/ozone_145.75/3189875
  |      Save outputs to: /lustre/isaac/scratch/gjones39/ANO-RCC-VTZP/ozone_145.75
  |               Molcas: /lustre/isaac/proj/UTK0022/Grier2025/Test/build
  |
  | Scratch area is empty
  |
  |       MOLCAS_DRIVER = /nfs/home/gjones39/bin/pymolcas
  | MOLCAS_KEEP_WORKDIR = NO
  |      MOLCAS_MAXITER = 100
  |  MOLCAS_NEW_WORKDIR = YES
  |       MOLCAS_NPROCS = 1
  |       MOLCAS_SOURCE = /lustre/isaac/proj/UTK0022/Grier2025/Test
  |    MOLCAS_STRUCTURE = 0
  |
   ---------------------------------------------------------------------------------------

++ ---------   Input file   ---------

&GATEWAY
coord=ozone_145.75.xyz
Basis = ANO-RCC-VTZP
Group = nosymm
End of Input

&SEWARD
End of Input

&SCF
FileOrb
/lustre/isaac/scratch/gjones39/ANO-RCC-VTZP/ozone_145.50/ozone_145.50.ScfOrb

>>> COPY $WorkDir/ozone_145.75.scf.h5 $CurrDir/

&RASSCF
Title= RASSCF
ITERation
200 100
CIMX
200
SDAV
500
FileOrb
/lustre/isaac/scratch/gjones39/ANO-RCC-VTZP/ozone_145.50/ozone_145.50.RasOrb
CIROOT
3 3 1
NACTEL
12 0 0
Inactive
6
RAS2
9
Symmetry
1
Spin
1
orblisting
all

>>> COPY $WorkDir/ozone_145.75.rasscf.h5 $CurrDir/

>>> COPY $WorkDir/GMJ_Fock_MO.csv $CurrDir/ozone_145.75.GMJ_Fock_MO.csv

&MOTRA
Frozen=0
LUMORB

>>> COPY $WorkDir/GMJ_one_int_indx.csv $CurrDir/ozone_145.75.GMJ_one_int_indx.csv

>>> COPY $WorkDir/GMJ_one_int.csv $CurrDir/ozone_145.75.GMJ_one_int.csv

>>> COPY $WorkDir/GMJ_two_int_indx.csv $CurrDir/ozone_145.75.GMJ_two_int_indx.csv

>>> COPY $WorkDir/GMJ_two_int.csv $CurrDir/ozone_145.75.GMJ_two_int.csv

&CASPT2

Multistate
ALL

Frozen
0

MAXITER
50

>>> FOREACH k IN (1,2,3)

  >>> FOREACH i IN (B,E,F,G,H)

    >>> FOREACH j IN (P,M)

      >>> IF (-FILE GMJ_e2_${i}_${j}_${k}_.csv)

        >>> COPY $WorkDir/GMJ_RHS_${i}_${j}_${k}_.csv $CurrDir/GMJ_RHS_${i}_${j}_${k}_.csv

        >>> COPY $WorkDir/GMJ_IVECW_${i}_${j}_${k}_.csv $CurrDir/GMJ_IVECW_${i}_${j}_${k}_.csv

        >>> COPY $WorkDir/GMJ_IVECX_${i}_${j}_${k}_.csv $CurrDir/GMJ_IVECX_${i}_${j}_${k}_.csv

        >>> COPY $WorkDir/GMJ_IVECC2_${i}_${j}_${k}_.csv $CurrDir/GMJ_IVECC2_${i}_${j}_${k}_.csv

        >>> COPY $WorkDir/GMJ_e2_${i}_${j}_${k}_.csv $CurrDir/GMJ_e2_${i}_${j}_${k}_.csv

      >>> END IF

    >>> END FOREACH

  >>> END FOREACH

>>> END FOREACH

>>> FOREACH j IN (1,2,3)

  >>> FOREACH i IN (A,C,D)

    >>> IF (-FILE GMJ_e2_${i}_${j}_.csv)

      >>> COPY $WorkDir/GMJ_RHS_${i}_${j}_.csv $CurrDir/GMJ_RHS_${i}_${j}_.csv

      >>> COPY $WorkDir/GMJ_IVECW_${i}_${j}_.csv $CurrDir/GMJ_IVECW_${i}_${j}_.csv

      >>> COPY $WorkDir/GMJ_IVECX_${i}_${j}_.csv $CurrDir/GMJ_IVECX_${i}_${j}_.csv

      >>> COPY $WorkDir/GMJ_IVECC2_${i}_${j}_.csv $CurrDir/GMJ_IVECC2_${i}_${j}_.csv

      >>> COPY $WorkDir/GMJ_e2_${i}_${j}_.csv $CurrDir/GMJ_e2_${i}_${j}_.csv

    >>> END IF

  >>> END FOREACH

>>> END FOREACH

-- ----------------------------------

--- Start Module: gateway at Tue Apr 29 18:12:33 2025 ---
 
()()()()()()()()()()()()()()()()()()()()()()()()()()()()()()()()()()()()()()()()()()()()()()()()()()

                                              &GATEWAY

                                   only a single process is used
                       available to each process: 62 GB of memory, 1 thread?
()()()()()()()()()()()()()()()()()()()()()()()()()()()()()()()()()()()()()()()()()()()()()()()()()()
 
 
++    Symmetry information:
      ---------------------
 
                    Character Table for C1 
 
                             E  
                    a        1  x, y, xy, Rz, z, xz, Ry, yz, Rx, I
--
 
 
++    Basis set information:
      ----------------------
 
 
      Basis set label: O.ANO-RCC...4S3P2D1F.
 
      Electronic valence basis set:
      ------------------
      Associated Effective Charge   8.000000 au
      Associated Actual Charge      8.000000 au
      Nuclear Model: Point charge
 
      Shell  nPrim  nBasis  Cartesian Spherical Contaminant
         s      14       4        X                  
         p       9       3        X                  
         d       4       2                 X         
         f       3       1                 X         
--
 
 
++    Molecular structure info:
      -------------------------
 
                    ************************************************ 
                    **** Cartesian Coordinates / Bohr, Angstrom **** 
                    ************************************************ 
 
     Center  Label                x              y              z                     x              y              z
        1      O1               0.711134       2.307996       0.000000              0.376316       1.221339       0.000000
        2      O2               0.000000       0.000000       0.000000              0.000000       0.000000       0.000000
        3      O3               0.711134      -2.307996       0.000000              0.376316      -1.221339       0.000000
 
                    *************************************** 
                    *    InterNuclear Distances / Bohr    * 
                    *************************************** 
 
               1 O1            2 O2            3 O3    
    1 O1       0.000000
    2 O2       2.415069        0.000000
    3 O3       4.615992        2.415069        0.000000
 
                    ******************************************* 
                    *    InterNuclear Distances / Angstrom    * 
                    ******************************************* 
 
               1 O1            2 O2            3 O3    
    1 O1       0.000000
    2 O2       1.277999        0.000000
    3 O3       2.442678        1.277999        0.000000
 
                    ************************************** 
                    *    Valence Bond Angles / Degree    * 
                    ************************************** 
                          Atom centers                 Phi
                      1 O1       2 O2       3 O3       145.75
--
 
 
            Nuclear Potential Energy             66.86539650 au
 
--- Stop Module: gateway at Tue Apr 29 18:12:37 2025 /rc=_RC_ALL_IS_WELL_ ---
*** files: xmldump
    saved to directory /lustre/isaac/scratch/gjones39/ANO-RCC-VTZP/ozone_145.75
--- Module gateway spent 3 seconds ---

--- Start Module: seward at Tue Apr 29 18:12:37 2025 ---
 
()()()()()()()()()()()()()()()()()()()()()()()()()()()()()()()()()()()()()()()()()()()()()()()()()()

                                              &SEWARD

                                   only a single process is used
                       available to each process: 62 GB of memory, 1 thread?
()()()()()()()()()()()()()()()()()()()()()()()()()()()()()()()()()()()()()()()()()()()()()()()()()()
 
               SEWARD will generate:
                  Multipole Moment integrals up to order  2
                  Kinetic Energy integrals
                  Nuclear Attraction integrals (point charge)
                  One-Electron Hamiltonian integrals
                  Velocity integrals
                  Relativistic Douglas-Kroll-Hess integrals:
                    - Parametrization         : EXP
                    - DKH order of Hamiltonian: 2
                    - DKH order of Properties : 0
                         - multipole moment operators
                         - electric potential operators
                         - contact operators
                  Atomic mean-field integrals
                  Two-Electron Repulsion integrals
 
                   Integrals are discarded if absolute value <: 0.10E-13
                   Integral cutoff threshold is set to       <: 0.10E-15
 
            Nuclear Potential Energy             66.86539650 au
 
 
      Basis set specifications :
      Symmetry species         a  
      Basis functions           90
 
 
  Input file to MOLDEN was generated!
 
--- Stop Module: seward at Tue Apr 29 18:12:46 2025 /rc=_RC_ALL_IS_WELL_ ---
*** files: ozone_145.75.GssOrb ozone_145.75.guessorb.h5 ozone_145.75.guessorb.molden xmldump
    saved to directory /lustre/isaac/scratch/gjones39/ANO-RCC-VTZP/ozone_145.75
--- Module seward spent 9 seconds ---

*** symbolic link created: INPORB -> ozone_145.75.GssOrb
--- Start Module: scf at Tue Apr 29 18:12:46 2025 ---
 
()()()()()()()()()()()()()()()()()()()()()()()()()()()()()()()()()()()()()()()()()()()()()()()()()()

                                                &SCF

                                   only a single process is used
                       available to each process: 62 GB of memory, 1 thread?
()()()()()()()()()()()()()()()()()()()()()()()()()()()()()()()()()()()()()()()()()()()()()()()()()()
 
++    Input section:
      --------------
 
      Header of the integral files:
      
       Integrals generated by seward 4.2.0  , Tue Apr 29 18:12:37 2025
 
 
      Cartesian coordinates in Angstrom:
      -----------------------------------------------------
      No.  Label        X            Y            Z        
      -----------------------------------------------------
       1   O1         0.37631600   1.22133900   0.00000000
       2   O2         0.00000000   0.00000000   0.00000000
       3   O3         0.37631600  -1.22133900   0.00000000
      -----------------------------------------------------
      Nuclear repulsion energy =   66.86539650
--
 
++    Orbital specifications:
      -----------------------
 
      Symmetry species               1
                                     a
      Frozen orbitals                0
      Occupied orbitals             12
      Secondary orbitals            78
      Deleted orbitals               0
      Total number of orbitals      90
      Number of basis functions     90
--
 
      Molecular charge                           0.000
 
++    Optimization specifications:
      ----------------------------
 
      SCF Algorithm: Conventional
      Minimized density differences are used
      Number of density matrices in core                5
      Maximum number of NDDO SCF iterations           400
      Maximum number of HF SCF iterations             400
      Threshold for SCF energy change            0.10E-08
      Threshold for density matrix               0.10E-03
      Threshold for Fock matrix                  0.15E-03
      Threshold for linear dependence            0.10E-08
      Threshold at which DIIS is turned on       0.15E+00
      Threshold at which QNR/C2DIIS is turned on 0.75E-01
      Threshold for Norm(delta) (QNR/C2DIIS)     0.20E-04
      DIIS extrapolation of the SCF procedure
      All orbitals punched on: SCFORB
--
 
      Input vectors read from INPORB
      Orbital file label: * SCF orbitals
 
 
++ Convergence information
                                   SCF        iterations: Energy and convergence statistics
 
Iter     Tot. SCF        One-elec.       Two-elec.     Energy      Max Dij or  Max Fij      DNorm      TNorm      AccCon     Time
         Energy          Energy          Energy        Change      Delta Norm                                                in Sec.
   1  -224.470417776  -441.371050964   150.035236692   0.00E+00    0.11E-02*   0.61E-03*    0.75E+01   0.11E+03   None         0.
   2  -224.470423183  -441.370702926   150.034883248  -0.54E-05*   0.62E-03*   0.31E-03*    0.70E-02   0.11E+03   EDIIS        0.
   3  -224.470424143  -441.371407959   150.035587321  -0.96E-06*   0.29E-03*   0.26E-03*    0.88E-03   0.11E+03   c2DIIS       0.
   4  -224.470424473  -441.370930073   150.035109105  -0.33E-06*   0.14E-03*   0.56E-04     0.94E-03   0.11E+03   QNRc2DIIS    0.
   5  -224.470424486  -441.371715213   150.035894232  -0.13E-07*   0.75E-04*   0.80E-04     0.57E-03   0.11E+03   QNRc2DIIS    0.
   6  -224.470424512  -441.371374102   150.035553095  -0.26E-07*   0.71E-04*   0.13E-04     0.59E-04   0.11E+03   QNRc2DIIS    0.
   7  -224.470424515  -441.371275951   150.035454940  -0.37E-08*   0.65E-05    0.14E-05     0.43E-04   0.11E+03   QNRc2DIIS    0.
   8  -224.470424515  -441.371328031   150.035507020  -0.28E-10    0.24E-05    0.15E-05     0.21E-04   0.11E+03   QNRc2DIIS    0.
 
       Convergence after  8 Macro Iterations
--
 
 *****************************************************************************************************************************
 *                                                                                                                           *
 *                                             SCF/KS-DFT Program, Final results                                             *
 *                                                                                                                           *
 *                                                                                                                           *
 *                                                                                                                           *
 *                                                       Final Results                                                       *
 *                                                                                                                           *
 *****************************************************************************************************************************
 
::    Total SCF energy                               -224.4704245153
      One-electron energy                            -441.3713280311
      Two-electron energy                             150.0355070202
      Nuclear repulsion energy                         66.8653964955
      Kinetic energy (interpolated)                   225.1016158963
      Virial theorem                                    0.9971959713
      Total spin, S(S+1)                                0.0000000000
      Total spin, S                                     0.0000000000
      Max non-diagonal density matrix element           0.0000033661
      Max non-diagonal Fock matrix element              0.0000007461
 
 
      All orbitals with orbital energies smaller than  E(LUMO)+0.5 are printed
 
++    Molecular orbitals:
      -------------------
 
      Title: SCF orbitals

      Molecular orbitals for symmetry species 1: a  
 
          Orbital            1         2         3         4         5         6         7         8         9        10    
          Energy          -20.9047  -20.7382  -20.7382   -1.7237   -1.4606   -1.0740   -0.8325   -0.8009   -0.7665   -0.5975
          Occ. No.          2.0000    2.0000    2.0000    2.0000    2.0000    2.0000    2.0000    2.0000    2.0000    2.0000
 
        1 O1     1s         0.0023   -0.7753    0.6297   -0.0128    0.0123    0.0128   -0.0073   -0.0237    0.0000    0.0076
        2 O1     2s         0.0022    0.0061   -0.0051    0.3415   -0.5608    0.6355   -0.1587   -0.4357   -0.0000    0.0819
        3 O1     3s         0.0013    0.0043   -0.0035   -0.0087    0.0205    0.0212   -0.0117   -0.0519    0.0000    0.0166
        4 O1     4s         0.0002    0.0009   -0.0007   -0.0002    0.0040    0.0036   -0.0024   -0.0109    0.0000    0.0037
        5 O1     2px       -0.0004   -0.0010    0.0007   -0.0287    0.0397    0.0763    0.2806   -0.2472   -0.0000   -0.6353
        6 O1     3px       -0.0004   -0.0009    0.0005    0.0102   -0.0058   -0.0131   -0.0186    0.0210   -0.0000    0.0002
        7 O1     4px       -0.0002    0.0003   -0.0004    0.0022    0.0005    0.0004   -0.0009    0.0009   -0.0000    0.0050
        8 O1     2py       -0.0015   -0.0026    0.0025   -0.1149    0.0850    0.1461   -0.2268   -0.3426   -0.0000    0.3026
        9 O1     3py       -0.0008   -0.0026    0.0025    0.0126   -0.0183   -0.0242    0.0202    0.0449   -0.0000   -0.0056
       10 O1     4py        0.0003    0.0017   -0.0014    0.0010   -0.0036    0.0009    0.0034    0.0038    0.0000   -0.0025
       11 O1     2pz       -0.0000    0.0000    0.0000    0.0000    0.0000    0.0000    0.0000   -0.0000    0.4008    0.0000
       12 O1     3pz       -0.0000    0.0000   -0.0000    0.0000    0.0000    0.0000    0.0000   -0.0000   -0.0158    0.0000
       13 O1     4pz        0.0000    0.0000    0.0000    0.0000   -0.0000    0.0000    0.0000   -0.0000   -0.0067   -0.0000
       14 O1     3d2-       0.0001    0.0007   -0.0006    0.0089   -0.0096   -0.0093   -0.0128    0.0185    0.0000    0.0082
       15 O1     4d2-       0.0000    0.0004   -0.0003    0.0005   -0.0011   -0.0005   -0.0012    0.0013   -0.0000    0.0013
       16 O1     3d1-       0.0000    0.0000    0.0000   -0.0000    0.0000    0.0000   -0.0000    0.0000   -0.0310   -0.0000
       17 O1     4d1-       0.0000   -0.0000   -0.0000   -0.0000    0.0000   -0.0000   -0.0000    0.0000   -0.0053   -0.0000
       18 O1     3d0       -0.0002   -0.0006    0.0005   -0.0104    0.0090    0.0058   -0.0069   -0.0146   -0.0000    0.0054
       19 O1     4d0       -0.0001   -0.0004    0.0004   -0.0008    0.0008    0.0001   -0.0008   -0.0008   -0.0000    0.0008
       20 O1     3d1+      -0.0000    0.0000    0.0000   -0.0000   -0.0000   -0.0000   -0.0000   -0.0000   -0.0088   -0.0000
       21 O1     4d1+       0.0000   -0.0000   -0.0000    0.0000   -0.0000   -0.0000    0.0000    0.0000   -0.0017    0.0000
       22 O1     3d2+      -0.0004   -0.0011    0.0010   -0.0179    0.0127    0.0112   -0.0216   -0.0217   -0.0000    0.0157
       23 O1     4d2+      -0.0002   -0.0005    0.0005   -0.0026    0.0016    0.0013   -0.0023   -0.0016   -0.0000    0.0022
       24 O1     4f3-       0.0001    0.0002   -0.0001    0.0040   -0.0035   -0.0012    0.0067    0.0036    0.0000   -0.0052
       25 O1     4f2-       0.0000   -0.0000   -0.0000    0.0000    0.0000   -0.0000    0.0000   -0.0000    0.0033    0.0000
       26 O1     4f1-       0.0000    0.0002   -0.0001    0.0033   -0.0030   -0.0015    0.0018    0.0037   -0.0000   -0.0012
       27 O1     4f0        0.0000    0.0000    0.0000   -0.0000    0.0000    0.0000    0.0000    0.0000   -0.0037   -0.0000
       28 O1     4f1+      -0.0000    0.0000   -0.0001    0.0009   -0.0008   -0.0006   -0.0002    0.0009    0.0000   -0.0009
       29 O1     4f2+      -0.0000    0.0000    0.0000   -0.0000    0.0000    0.0000    0.0000    0.0000   -0.0062   -0.0000
       30 O1     4f3+       0.0000    0.0002   -0.0001    0.0038   -0.0041   -0.0028   -0.0035    0.0059    0.0000    0.0026
       31 O2     1s         0.9994    0.0001   -0.0010   -0.0280   -0.0000   -0.0160   -0.0058   -0.0000   -0.0000   -0.0000
       32 O2     2s        -0.0044   -0.0012    0.0116    0.6237    0.0000   -0.6404   -0.0618   -0.0000   -0.0000   -0.0000
       33 O2     3s        -0.0033   -0.0007    0.0067   -0.0693   -0.0000   -0.0191   -0.0102   -0.0000   -0.0000   -0.0000
       34 O2     4s        -0.0007   -0.0001    0.0011   -0.0128   -0.0000   -0.0044   -0.0038   -0.0000   -0.0000   -0.0000
       35 O2     2px       -0.0000   -0.0003    0.0024    0.0668    0.0000    0.1556    0.7069   -0.0000   -0.0000    0.0000
       36 O2     3px       -0.0009   -0.0002    0.0015   -0.0296   -0.0000   -0.0199   -0.0748    0.0000    0.0000   -0.0000
       37 O2     4px        0.0014    0.0000   -0.0005   -0.0041   -0.0000    0.0015   -0.0101    0.0000    0.0000   -0.0000
       38 O2     2py        0.0000   -0.0067   -0.0007    0.0000   -0.3355   -0.0000    0.0000    0.5471    0.0000   -0.1392
       39 O2     3py       -0.0000   -0.0045   -0.0005   -0.0000    0.0651    0.0000   -0.0000   -0.0555   -0.0000   -0.0059
       40 O2     4py        0.0000    0.0012    0.0001    0.0000   -0.0016    0.0000   -0.0000   -0.0100    0.0000    0.0005
       41 O2     2pz       -0.0000    0.0000    0.0000   -0.0000   -0.0000    0.0000   -0.0000   -0.0000    0.6572   -0.0000
       42 O2     3pz        0.0000    0.0000    0.0000   -0.0000   -0.0000   -0.0000   -0.0000    0.0000   -0.0448   -0.0000
       43 O2     4pz        0.0000   -0.0000   -0.0000   -0.0000   -0.0000   -0.0000   -0.0000    0.0000   -0.0177   -0.0000
       44 O2     3d2-      -0.0000   -0.0011   -0.0001    0.0000   -0.0292   -0.0000    0.0000    0.0203   -0.0000   -0.0444
       45 O2     4d2-      -0.0000   -0.0005   -0.0001    0.0000   -0.0031   -0.0000    0.0000    0.0018   -0.0000   -0.0075
       46 O2     3d1-       0.0000    0.0000   -0.0000   -0.0000    0.0000    0.0000    0.0000   -0.0000    0.0000    0.0000
       47 O2     4d1-       0.0000   -0.0000   -0.0000   -0.0000    0.0000    0.0000    0.0000   -0.0000    0.0000    0.0000
       48 O2     3d0        0.0002    0.0001   -0.0011   -0.0147   -0.0000   -0.0034   -0.0125    0.0000    0.0000   -0.0000
       49 O2     4d0        0.0004    0.0001   -0.0006    0.0007    0.0000    0.0002   -0.0009    0.0000    0.0000   -0.0000
       50 O2     3d1+      -0.0000    0.0000    0.0000    0.0000   -0.0000    0.0000    0.0000   -0.0000    0.0232    0.0000
       51 O2     4d1+      -0.0000    0.0000    0.0000    0.0000    0.0000   -0.0000    0.0000   -0.0000    0.0034    0.0000
       52 O2     3d2+       0.0006    0.0002   -0.0015   -0.0209   -0.0000   -0.0038    0.0135   -0.0000    0.0000   -0.0000
       53 O2     4d2+       0.0003    0.0001   -0.0007   -0.0015   -0.0000   -0.0005    0.0007   -0.0000    0.0000   -0.0000
       54 O2     4f3-       0.0000    0.0001    0.0000   -0.0000    0.0066    0.0000   -0.0000   -0.0076   -0.0000   -0.0064
       55 O2     4f2-       0.0000    0.0000   -0.0000    0.0000   -0.0000    0.0000    0.0000    0.0000    0.0000    0.0000
       56 O2     4f1-       0.0000    0.0001    0.0000   -0.0000    0.0054    0.0000   -0.0000   -0.0046   -0.0000    0.0010
       57 O2     4f0        0.0000   -0.0000   -0.0000   -0.0000    0.0000    0.0000   -0.0000    0.0000   -0.0057    0.0000
       58 O2     4f1+       0.0001    0.0000   -0.0001   -0.0018   -0.0000    0.0001   -0.0008    0.0000    0.0000    0.0000
       59 O2     4f2+       0.0000   -0.0000   -0.0000   -0.0000   -0.0000    0.0000   -0.0000    0.0000   -0.0093    0.0000
       60 O2     4f3+       0.0001    0.0000   -0.0002   -0.0084   -0.0000   -0.0012   -0.0091    0.0000    0.0000   -0.0000
       61 O3     1s         0.0023    0.6298    0.7753   -0.0128   -0.0123    0.0128   -0.0073    0.0237    0.0000   -0.0076
       62 O3     2s         0.0022   -0.0049   -0.0062    0.3415    0.5608    0.6355   -0.1587    0.4357    0.0000   -0.0819
       63 O3     3s         0.0013   -0.0035   -0.0043   -0.0087   -0.0205    0.0212   -0.0117    0.0519    0.0000   -0.0166
       64 O3     4s         0.0002   -0.0008   -0.0008   -0.0002   -0.0040    0.0036   -0.0024    0.0109    0.0000   -0.0037
       65 O3     2px       -0.0004    0.0008    0.0009   -0.0287   -0.0397    0.0763    0.2806    0.2472    0.0000    0.6352
       66 O3     3px       -0.0004    0.0008    0.0007    0.0102    0.0058   -0.0131   -0.0186   -0.0210   -0.0000   -0.0002
       67 O3     4px       -0.0002   -0.0002   -0.0005    0.0022   -0.0005    0.0004   -0.0009   -0.0009    0.0000   -0.0050
       68 O3     2py        0.0015   -0.0020   -0.0030    0.1149    0.0850   -0.1461    0.2268   -0.3426   -0.0000    0.3026
       69 O3     3py        0.0008   -0.0020   -0.0029   -0.0126   -0.0183    0.0242   -0.0202    0.0449    0.0000   -0.0056
       70 O3     4py       -0.0003    0.0014    0.0017   -0.0010   -0.0036   -0.0009   -0.0034    0.0038   -0.0000   -0.0025
       71 O3     2pz        0.0000   -0.0000   -0.0000    0.0000    0.0000    0.0000    0.0000   -0.0000    0.4008   -0.0000
       72 O3     3pz        0.0000   -0.0000   -0.0000    0.0000    0.0000    0.0000    0.0000   -0.0000   -0.0158    0.0000
       73 O3     4pz       -0.0000   -0.0000    0.0000    0.0000    0.0000    0.0000    0.0000   -0.0000   -0.0067    0.0000
       74 O3     3d2-      -0.0001    0.0005    0.0007   -0.0089   -0.0096    0.0093    0.0128    0.0185    0.0000    0.0082
       75 O3     4d2-      -0.0000    0.0003    0.0004   -0.0005   -0.0011    0.0005    0.0012    0.0013   -0.0000    0.0013
       76 O3     3d1-       0.0000    0.0000   -0.0000    0.0000    0.0000    0.0000    0.0000   -0.0000    0.0310    0.0000
       77 O3     4d1-       0.0000    0.0000   -0.0000    0.0000    0.0000    0.0000    0.0000   -0.0000    0.0053    0.0000
       78 O3     3d0       -0.0002    0.0004    0.0006   -0.0104   -0.0090    0.0058   -0.0069    0.0146    0.0000   -0.0054
       79 O3     4d0       -0.0001    0.0003    0.0005   -0.0008   -0.0008    0.0001   -0.0008    0.0008   -0.0000   -0.0008
       80 O3     3d1+      -0.0000    0.0000    0.0000    0.0000   -0.0000   -0.0000   -0.0000    0.0000   -0.0088    0.0000
       81 O3     4d1+      -0.0000    0.0000    0.0000   -0.0000   -0.0000   -0.0000   -0.0000    0.0000   -0.0017   -0.0000
       82 O3     3d2+      -0.0004    0.0009    0.0012   -0.0179   -0.0127    0.0112   -0.0216    0.0217    0.0000   -0.0157
       83 O3     4d2+      -0.0002    0.0004    0.0006   -0.0026   -0.0016    0.0013   -0.0023    0.0016    0.0000   -0.0022
       84 O3     4f3-      -0.0001    0.0001    0.0001   -0.0040   -0.0035    0.0012   -0.0067    0.0036    0.0000   -0.0052
       85 O3     4f2-      -0.0000    0.0000    0.0000    0.0000   -0.0000   -0.0000   -0.0000    0.0000   -0.0033    0.0000
       86 O3     4f1-      -0.0000    0.0001    0.0002   -0.0033   -0.0030    0.0015   -0.0018    0.0037   -0.0000   -0.0012
       87 O3     4f0       -0.0000   -0.0000    0.0000   -0.0000   -0.0000   -0.0000    0.0000    0.0000   -0.0037    0.0000
       88 O3     4f1+      -0.0000   -0.0000   -0.0001    0.0009    0.0008   -0.0006   -0.0002   -0.0009    0.0000    0.0009
       89 O3     4f2+      -0.0000   -0.0000    0.0000    0.0000    0.0000   -0.0000   -0.0000    0.0000   -0.0062    0.0000
       90 O3     4f3+       0.0000   -0.0001   -0.0002    0.0038    0.0041   -0.0028   -0.0035   -0.0059   -0.0000   -0.0026
 
          Orbital           11        12        13        14        15        16        17        18        19        20    
          Energy           -0.5080   -0.5053   -0.0374    0.1712    0.1714    0.2326    0.2349    0.3056    0.3580    0.3721
          Occ. No.          2.0000    2.0000    0.0000    0.0000    0.0000    0.0000    0.0000    0.0000    0.0000    0.0000
 
        1 O1     1s         0.0026   -0.0000   -0.0000   -0.2155    0.0902   -0.0498   -0.0000    0.0794   -0.0174   -0.0000
        2 O1     2s         0.0051    0.0000   -0.0000   -1.5706    0.7563   -0.2985   -0.0000    0.5006   -0.0580   -0.0000
        3 O1     3s         0.0141   -0.0000    0.0000   -0.9273    0.3051   -0.2743   -0.0000    0.5519   -0.0259   -0.0000
        4 O1     4s         0.0047   -0.0000    0.0000   -0.2091    0.0522   -0.0685   -0.0000    0.1496   -0.0002   -0.0000
        5 O1     2px        0.6679   -0.0000    0.0000    0.2919   -0.0767   -0.0160   -0.0000   -0.1191   -0.1878    0.0000
        6 O1     3px        0.0251   -0.0000   -0.0000    0.3014   -0.1011    0.3864    0.0000    0.1081   -0.8135    0.0000
        7 O1     4px       -0.0024    0.0000   -0.0000    0.0386   -0.0199    0.1747    0.0000    0.0897   -0.3240    0.0000
        8 O1     2py        0.0398   -0.0000    0.0000    0.6157   -0.9702    0.0103    0.0000   -0.2606   -0.1944    0.0000
        9 O1     3py       -0.0136    0.0000   -0.0000    0.7683   -0.6090    0.1793    0.0000   -0.9042   -0.1311   -0.0000
       10 O1     4py       -0.0025    0.0000   -0.0000    0.1055   -0.0875   -0.0022    0.0000   -0.2180   -0.0259   -0.0000
       11 O1     2pz       -0.0000   -0.6972    0.6688    0.0000    0.0000    0.0000   -0.1296   -0.0000    0.0000   -0.1546
       12 O1     3pz       -0.0000   -0.0284    0.1693   -0.0000   -0.0000   -0.0000    0.3634   -0.0000   -0.0000   -0.8891
       13 O1     4pz        0.0000    0.0071    0.0270   -0.0000   -0.0000   -0.0000    0.2009   -0.0000   -0.0000   -0.3579
       14 O1     3d2-      -0.0054    0.0000   -0.0000   -0.0534    0.0281   -0.0140   -0.0000    0.0223    0.0066   -0.0000
       15 O1     4d2-      -0.0008    0.0000   -0.0000   -0.0358    0.0160   -0.0122   -0.0000    0.0160    0.0150    0.0000
       16 O1     3d1-       0.0000    0.0249    0.0119    0.0000    0.0000   -0.0000    0.0078   -0.0000   -0.0000    0.0068
       17 O1     4d1-       0.0000    0.0059    0.0011    0.0000    0.0000    0.0000   -0.0001   -0.0000   -0.0000    0.0122
       18 O1     3d0        0.0043   -0.0000   -0.0000    0.0519   -0.0246    0.0290    0.0000   -0.0511   -0.0070   -0.0000
       19 O1     4d0        0.0003    0.0000   -0.0000    0.0329   -0.0179    0.0176    0.0000   -0.0344   -0.0094   -0.0000
       20 O1     3d1+       0.0000    0.0065    0.0043   -0.0000    0.0000   -0.0000    0.0029   -0.0000    0.0000    0.0115
       21 O1     4d1+       0.0000    0.0014    0.0003    0.0000    0.0000   -0.0000    0.0002   -0.0000    0.0000    0.0095
       22 O1     3d2+       0.0072   -0.0000    0.0000    0.0737   -0.0260    0.0532    0.0000   -0.0982    0.0047    0.0000
       23 O1     4d2+      -0.0003    0.0000    0.0000    0.0443   -0.0229    0.0295    0.0000   -0.0665   -0.0007   -0.0000
       24 O1     4f3-      -0.0007    0.0000   -0.0000   -0.0067    0.0029    0.0004    0.0000    0.0102   -0.0018    0.0000
       25 O1     4f2-      -0.0000   -0.0025   -0.0003    0.0000   -0.0000   -0.0000    0.0011   -0.0000   -0.0000   -0.0052
       26 O1     4f1-      -0.0013    0.0000   -0.0000   -0.0052    0.0035   -0.0030   -0.0000    0.0099    0.0047   -0.0000
       27 O1     4f0        0.0000    0.0018    0.0015   -0.0000    0.0000    0.0000   -0.0019    0.0000    0.0000    0.0060
       28 O1     4f1+       0.0008   -0.0000   -0.0000   -0.0009    0.0016   -0.0018   -0.0000    0.0017    0.0038    0.0000
       29 O1     4f2+       0.0000    0.0049   -0.0005   -0.0000    0.0000    0.0000   -0.0017    0.0000   -0.0000    0.0049
       30 O1     4f3+      -0.0031    0.0000   -0.0000   -0.0052    0.0050   -0.0039   -0.0000    0.0057    0.0091   -0.0000
       31 O2     1s         0.0225   -0.0000    0.0000    0.0005   -0.2567    0.0996    0.0000   -0.2543   -0.0000    0.0000
       32 O2     2s         0.2674   -0.0000    0.0000    0.0039   -1.9970    0.5841    0.0000   -1.5397   -0.0000    0.0000
       33 O2     3s         0.0572   -0.0000    0.0000    0.0019   -0.9634    0.4448    0.0000   -0.9605    0.0000   -0.0000
       34 O2     4s         0.0140   -0.0000    0.0000    0.0004   -0.2099    0.0886    0.0000   -0.1731    0.0000   -0.0000
       35 O2     2px       -0.5948    0.0000   -0.0000    0.0012   -0.6010   -0.0796   -0.0000   -0.1576    0.0000   -0.0000
       36 O2     3px       -0.0220    0.0000    0.0000    0.0007   -0.3387    0.3980    0.0000   -0.3841    0.0000    0.0000
       37 O2     4px       -0.0031    0.0000    0.0000    0.0001   -0.0414    0.1695    0.0000   -0.0131    0.0000    0.0000
       38 O2     2py       -0.0000   -0.0000    0.0000    1.5190    0.0029    0.0000    0.0000    0.0000   -0.0695    0.0000
       39 O2     3py       -0.0000    0.0000   -0.0000    1.5439    0.0030    0.0000    0.0000    0.0000    0.3361    0.0000
       40 O2     4py       -0.0000   -0.0000   -0.0000    0.1564    0.0003    0.0000    0.0000    0.0000    0.1635    0.0000
       41 O2     2pz        0.0000    0.0000   -0.8885   -0.0000    0.0000    0.0000   -0.0270    0.0000   -0.0000    0.0000
       42 O2     3pz        0.0000   -0.0000   -0.1962   -0.0000    0.0000   -0.0000    0.3069    0.0000   -0.0000    0.0000
       43 O2     4pz        0.0000   -0.0000   -0.0209   -0.0000    0.0000   -0.0000    0.1839    0.0000   -0.0000    0.0000
       44 O2     3d2-      -0.0000   -0.0000    0.0000    0.1063    0.0002   -0.0000    0.0000   -0.0000    0.0924    0.0000
       45 O2     4d2-      -0.0000   -0.0000   -0.0000    0.0652    0.0001   -0.0000    0.0000   -0.0000    0.0641    0.0000
       46 O2     3d1-      -0.0000   -0.0615   -0.0000   -0.0000    0.0000   -0.0000   -0.0000    0.0000    0.0000    0.1113
       47 O2     4d1-      -0.0000   -0.0143   -0.0000    0.0000    0.0000   -0.0000   -0.0000    0.0000    0.0000    0.0671
       48 O2     3d0        0.0185   -0.0000    0.0000   -0.0000    0.0087   -0.0662   -0.0000    0.1306    0.0000   -0.0000
       49 O2     4d0        0.0021   -0.0000   -0.0000   -0.0000    0.0154   -0.0334   -0.0000    0.0599    0.0000   -0.0000
       50 O2     3d1+      -0.0000    0.0000   -0.0013   -0.0000   -0.0000    0.0000   -0.0193   -0.0000    0.0000   -0.0000
       51 O2     4d1+      -0.0000    0.0000    0.0001   -0.0000   -0.0000    0.0000   -0.0081   -0.0000    0.0000    0.0000
       52 O2     3d2+       0.0335   -0.0000   -0.0000   -0.0000    0.0070   -0.1142   -0.0000    0.1303    0.0000   -0.0000
       53 O2     4d2+       0.0063   -0.0000   -0.0000   -0.0000    0.0204   -0.0512   -0.0000    0.0452   -0.0000   -0.0000
       54 O2     4f3-      -0.0000   -0.0000    0.0000   -0.0116   -0.0000   -0.0000   -0.0000   -0.0000   -0.0017   -0.0000
       55 O2     4f2-      -0.0000   -0.0061   -0.0000    0.0000    0.0000   -0.0000   -0.0000    0.0000   -0.0000    0.0049
       56 O2     4f1-       0.0000   -0.0000    0.0000   -0.0104   -0.0000   -0.0000   -0.0000    0.0000   -0.0082   -0.0000
       57 O2     4f0        0.0000   -0.0000   -0.0021    0.0000   -0.0000    0.0000   -0.0014   -0.0000   -0.0000   -0.0000
       58 O2     4f1+      -0.0012    0.0000   -0.0000    0.0000   -0.0003   -0.0034   -0.0000    0.0051   -0.0000    0.0000
       59 O2     4f2+       0.0000   -0.0000    0.0013    0.0000   -0.0000    0.0000   -0.0020    0.0000    0.0000   -0.0000
       60 O2     4f3+       0.0030   -0.0000    0.0000   -0.0000    0.0024   -0.0086   -0.0000    0.0102   -0.0000   -0.0000
       61 O3     1s         0.0026   -0.0000   -0.0000    0.2151    0.0910   -0.0498   -0.0000    0.0794    0.0174    0.0000
       62 O3     2s         0.0051   -0.0000   -0.0000    1.5677    0.7624   -0.2985   -0.0000    0.5006    0.0580    0.0000
       63 O3     3s         0.0141   -0.0000   -0.0000    0.9261    0.3087   -0.2743   -0.0000    0.5519    0.0259    0.0000
       64 O3     4s         0.0047   -0.0000   -0.0000    0.2089    0.0530   -0.0685   -0.0000    0.1496    0.0002   -0.0000
       65 O3     2px        0.6679   -0.0000    0.0000   -0.2916   -0.0778   -0.0160   -0.0000   -0.1191    0.1878    0.0000
       66 O3     3px        0.0251   -0.0000    0.0000   -0.3010   -0.1023    0.3864    0.0000    0.1081    0.8135   -0.0000
       67 O3     4px       -0.0024    0.0000   -0.0000   -0.0385   -0.0200    0.1747    0.0000    0.0897    0.3240   -0.0000
       68 O3     2py       -0.0398    0.0000   -0.0000    0.6119    0.9726   -0.0103    0.0000    0.2606   -0.1944   -0.0000
       69 O3     3py        0.0136   -0.0000   -0.0000    0.7660    0.6119   -0.1793   -0.0000    0.9042   -0.1310    0.0000
       70 O3     4py        0.0025   -0.0000   -0.0000    0.1051    0.0879    0.0022    0.0000    0.2180   -0.0259   -0.0000
       71 O3     2pz        0.0000    0.6972    0.6688    0.0000   -0.0000    0.0000   -0.1296    0.0000    0.0000    0.1546
       72 O3     3pz        0.0000    0.0284    0.1693   -0.0000   -0.0000   -0.0000    0.3634    0.0000   -0.0000    0.8891
       73 O3     4pz       -0.0000   -0.0071    0.0270   -0.0000   -0.0000   -0.0000    0.2009    0.0000   -0.0000    0.3579
       74 O3     3d2-       0.0054   -0.0000    0.0000   -0.0533   -0.0283    0.0140    0.0000   -0.0223    0.0066   -0.0000
       75 O3     4d2-       0.0008   -0.0000    0.0000   -0.0357   -0.0162    0.0122    0.0000   -0.0160    0.0150   -0.0000
       76 O3     3d1-       0.0000    0.0249   -0.0119   -0.0000   -0.0000    0.0000   -0.0078   -0.0000   -0.0000    0.0068
       77 O3     4d1-       0.0000    0.0059   -0.0011   -0.0000   -0.0000    0.0000    0.0001   -0.0000   -0.0000    0.0122
       78 O3     3d0        0.0043   -0.0000    0.0000   -0.0518   -0.0248    0.0290    0.0000   -0.0511    0.0070   -0.0000
       79 O3     4d0        0.0003    0.0000   -0.0000   -0.0328   -0.0180    0.0176    0.0000   -0.0344    0.0094   -0.0000
       80 O3     3d1+      -0.0000   -0.0065    0.0043   -0.0000    0.0000   -0.0000    0.0029   -0.0000    0.0000   -0.0115
       81 O3     4d1+      -0.0000   -0.0014    0.0003   -0.0000   -0.0000   -0.0000    0.0002   -0.0000   -0.0000   -0.0095
       82 O3     3d2+       0.0072   -0.0000    0.0000   -0.0736   -0.0263    0.0532    0.0000   -0.0982   -0.0047   -0.0000
       83 O3     4d2+      -0.0003    0.0000    0.0000   -0.0442   -0.0231    0.0295    0.0000   -0.0665    0.0007   -0.0000
       84 O3     4f3-       0.0007   -0.0000    0.0000   -0.0067   -0.0030   -0.0004   -0.0000   -0.0102   -0.0018   -0.0000
       85 O3     4f2-      -0.0000   -0.0025    0.0003    0.0000   -0.0000    0.0000   -0.0011   -0.0000    0.0000   -0.0052
       86 O3     4f1-       0.0013   -0.0000    0.0000   -0.0052   -0.0035    0.0030    0.0000   -0.0099    0.0047   -0.0000
       87 O3     4f0       -0.0000   -0.0018    0.0015    0.0000    0.0000    0.0000   -0.0019   -0.0000   -0.0000   -0.0060
       88 O3     4f1+       0.0008   -0.0000   -0.0000    0.0009    0.0016   -0.0018   -0.0000    0.0017   -0.0038    0.0000
       89 O3     4f2+      -0.0000   -0.0049   -0.0005    0.0000   -0.0000    0.0000   -0.0017   -0.0000    0.0000   -0.0049
       90 O3     4f3+      -0.0031    0.0000    0.0000    0.0052    0.0050   -0.0039   -0.0000    0.0057   -0.0091    0.0000
 
          Orbital           21    
          Energy            0.4469
          Occ. No.          0.0000
 
        1 O1     1s        -0.0430
        2 O1     2s        -0.2499
        3 O1     3s         0.2108
        4 O1     4s         0.1364
        5 O1     2px        0.1903
        6 O1     3px        0.4165
        7 O1     4px        0.1008
        8 O1     2py       -0.0131
        9 O1     3py        0.4426
       10 O1     4py        0.1082
       11 O1     2pz        0.0000
       12 O1     3pz       -0.0000
       13 O1     4pz       -0.0000
       14 O1     3d2-      -0.0838
       15 O1     4d2-      -0.0536
       16 O1     3d1-      -0.0000
       17 O1     4d1-      -0.0000
       18 O1     3d0        0.0549
       19 O1     4d0        0.0329
       20 O1     3d1+      -0.0000
       21 O1     4d1+      -0.0000
       22 O1     3d2+       0.0699
       23 O1     4d2+       0.0392
       24 O1     4f3-      -0.0011
       25 O1     4f2-       0.0000
       26 O1     4f1-      -0.0039
       27 O1     4f0        0.0000
       28 O1     4f1+      -0.0023
       29 O1     4f2+       0.0000
       30 O1     4f3+      -0.0072
       31 O2     1s         0.0916
       32 O2     2s         0.5415
       33 O2     3s         0.8739
       34 O2     4s         0.2651
       35 O2     2px       -0.2670
       36 O2     3px       -0.5832
       37 O2     4px       -0.2080
       38 O2     2py       -0.0000
       39 O2     3py        0.0000
       40 O2     4py        0.0000
       41 O2     2pz       -0.0000
       42 O2     3pz       -0.0000
       43 O2     4pz       -0.0000
       44 O2     3d2-       0.0000
       45 O2     4d2-       0.0000
       46 O2     3d1-       0.0000
       47 O2     4d1-       0.0000
       48 O2     3d0       -0.0301
       49 O2     4d0       -0.0071
       50 O2     3d1+      -0.0000
       51 O2     4d1+      -0.0000
       52 O2     3d2+      -0.0685
       53 O2     4d2+      -0.0316
       54 O2     4f3-      -0.0000
       55 O2     4f2-       0.0000
       56 O2     4f1-      -0.0000
       57 O2     4f0        0.0000
       58 O2     4f1+      -0.0001
       59 O2     4f2+       0.0000
       60 O2     4f3+      -0.0033
       61 O3     1s        -0.0430
       62 O3     2s        -0.2499
       63 O3     3s         0.2108
       64 O3     4s         0.1364
       65 O3     2px        0.1903
       66 O3     3px        0.4165
       67 O3     4px        0.1008
       68 O3     2py        0.0131
       69 O3     3py       -0.4426
       70 O3     4py       -0.1082
       71 O3     2pz        0.0000
       72 O3     3pz        0.0000
       73 O3     4pz        0.0000
       74 O3     3d2-       0.0838
       75 O3     4d2-       0.0536
       76 O3     3d1-      -0.0000
       77 O3     4d1-      -0.0000
       78 O3     3d0        0.0549
       79 O3     4d0        0.0329
       80 O3     3d1+      -0.0000
       81 O3     4d1+      -0.0000
       82 O3     3d2+       0.0699
       83 O3     4d2+       0.0392
       84 O3     4f3-       0.0011
       85 O3     4f2-      -0.0000
       86 O3     4f1-       0.0039
       87 O3     4f0       -0.0000
       88 O3     4f1+      -0.0023
       89 O3     4f2+      -0.0000
       90 O3     4f3+      -0.0072
--
 
 
++    Molecular charges:
      ------------------
 
      Mulliken charges per centre and basis function type
      ---------------------------------------------------
 
                O1      O2      O3    
      1s       1.9977  1.9987  1.9977
      2s       1.9525  1.6694  1.9525
      2px      1.9336  1.7130  1.9336
      2pz      1.4014  1.1059  1.4014
      2py      0.8507  1.0341  0.8507
      3s      -0.0049 -0.0316 -0.0049
      3px     -0.0144 -0.0301 -0.0144
      3pz     -0.0079 -0.0147 -0.0079
      3py      0.0012  0.0056  0.0012
      4s       0.0039  0.0015  0.0039
      3d2+     0.0196  0.0319  0.0196
      3d1+     0.0012  0.0042  0.0012
      3d0      0.0058  0.0070  0.0058
      3d1-     0.0139  0.0527  0.0139
      3d2-     0.0106  0.0395  0.0106
      4px      0.0005  0.0012  0.0005
      4pz      0.0012  0.0018  0.0012
      4py      0.0027  0.0039  0.0027
      4d2+     0.0014  0.0040  0.0014
      4d1+     0.0002  0.0006  0.0002
      4d0      0.0001 -0.0003  0.0001
      4d1-     0.0020  0.0133  0.0020
      4d2-     0.0005  0.0058  0.0005
      4f3+     0.0023  0.0031  0.0023
      4f2+     0.0015  0.0027  0.0015
      4f1+     0.0002  0.0003  0.0002
      4f0      0.0008  0.0015  0.0008
      4f1-     0.0012  0.0013  0.0012
      4f2-     0.0005  0.0019  0.0005
      4f3-     0.0029  0.0057  0.0029
      Total    8.1830  7.6339  8.1830
 
      N-E     -0.1830  0.3661 -0.1830
 
      Total electronic charge=   24.000000
 
      Total            charge=   -0.000000
--
 
 
  Input file to MOLDEN was generated!
 
 
++    Static properties:
      ------------------
 
 
      LoProp Charges per center
 

                   O1       O2       O3    
      Nuclear      8.0000   8.0000   8.0000
      Electronic  -8.1918  -7.6164  -8.1918
 
      Total       -0.1918   0.3836  -0.1918
--
 
 
++    Natural Bond Order analysis
      ---------------------------
      Based on LoProp computed density
      -------------------------------------------------------------------------------------
      Atom A       Atom B       Bond Order | Atom A       Atom B       Bond Order
        O1           O2             1.996  |   O2           O3             1.996
      -------------------------------------------------------------------------------------
      NBO located     11.999 core electrons.
      NBO located      3.953 lone pair electrons.
      NBO located      7.983 electrons involved in    2 bonds.
      The remaining    0.065 electrons are to be considered as diffuse
--
 
 
++    Molecular properties:
      ---------------------
 
      Charge (e):
                      =   -0.0000
      Dipole Moment (Debye):
      Origin of the operator (Ang)=    0.0000    0.0000    0.0000
                   X= -2.6398E-01               Y= -5.6892E-06               Z= -7.1593E-14           Total=  2.6398E-01
      Quadrupole Moment (Debye*Ang):
      Origin of the operator (Ang)=    0.2509    0.0000    0.0000
                  XX= -1.6218E+01              XY= -6.3727E-07              XZ=  6.6294E-14              YY= -1.6989E+01
                  YZ= -1.7479E-13              ZZ= -1.4919E+01
      In traceless form (Debye*Ang)
                  XX= -2.6412E-01              XY= -9.5591E-07              XZ=  9.9440E-14              YY= -1.4200E+00
                  YZ= -2.6218E-13              ZZ=  1.6841E+00
--
 
 
  Input file to MOLDEN was generated!
 
 ###############################################################################
 ###############################################################################
 ###                                                                         ###
 ###                                                                         ###
 ###    RunFile label nBas                                                   ###
 ###    was used       78 times                                              ###
 ###                                                                         ###
 ###                                                                         ###
 ###############################################################################
 ###############################################################################
--- Stop Module: scf at Tue Apr 29 18:12:49 2025 /rc=_RC_ALL_IS_WELL_ ---
*** files: ozone_145.75.LprOrb ozone_145.75.LoProp.molden ozone_145.75.scf.molden ozone_145.75.ScfOrb ozone_145.75.scf.h5 xmldump
    saved to directory /lustre/isaac/scratch/gjones39/ANO-RCC-VTZP/ozone_145.75
--- Module scf spent 2 seconds ---

>>> COPY /lustre/isaac/scratch/gjones39/ANO-RCC-VTZP/ozone_145.75/3189875/ozone_145.75.scf.h5 /lustre/isaac/scratch/gjones39/ANO-RCC-VTZP/ozone_145.75/

*** symbolic link created: INPORB -> ozone_145.75.ScfOrb
--- Start Module: rasscf at Tue Apr 29 18:12:49 2025 ---
 
()()()()()()()()()()()()()()()()()()()()()()()()()()()()()()()()()()()()()()()()()()()()()()()()()()

                                              &RASSCF

                                   only a single process is used
                       available to each process: 62 GB of memory, 1 thread?
()()()()()()()()()()()()()()()()()()()()()()()()()()()()()()()()()()()()()()()()()()()()()()()()()()
 
 
      Header of the ONEINT file:
      --------------------------
      
      Integrals generated by seward 4.2.0  , Tue Apr 29 18:12:37 2025
 
 
      OrdInt status: non-squared
 
 
      Cartesian coordinates in Angstrom:
      -----------------------------------------------------
      No.  Label        X            Y            Z        
      -----------------------------------------------------
       1   O1         0.37631600   1.22133900   0.00000000
       2   O2         0.00000000   0.00000000   0.00000000
       3   O3         0.37631600  -1.22133900   0.00000000
      -----------------------------------------------------
      Nuclear repulsion energy =   66.86539650
 
++    Wave function specifications:
      -----------------------------
 
      Number of closed shell electrons          12
      Number of electrons in active shells      12
      Max number of holes in RAS1 space          0
      Max nr of electrons in RAS3 space          0
      Number of inactive orbitals                6
      Number of active orbitals                  9
      Number of secondary orbitals              75
      Spin quantum number                      0.0
      State symmetry                             1
--
 
++    Orbital specifications:
      -----------------------
 
      Symmetry species                           1
                                                 a
      Frozen orbitals                            0
      Inactive orbitals                          6
      Active orbitals                            9
      RAS1 orbitals                              0
      RAS2 orbitals                              9
      RAS3 orbitals                              0
      Secondary orbitals                        75
      Deleted orbitals                           0
      Number of basis functions                 90
--
 
++    CI expansion specifications:
      ----------------------------
 
      Number of CSFs                          2520
      Number of determinants                  3570
      Number of root(s) required                 3
      Root chosen for geometry opt.              3
      CI roots used                              1     2     3
      weights                                0.333 0.333 0.333
      highest root included in the CI            3
      max. size of the explicit Hamiltonian    500
--
 
++    Optimization specifications:
      ----------------------------
 
      RASSCF algorithm: Conventional
      Maximum number of macro iterations       200
      Maximum number of SX iterations          100
      Threshold for RASSCF energy            0.100E-07
      Threshold for max MO rotation          0.100E+00
      Threshold for max BLB element          0.100E-03
      Level shift parameter                  0.500E+00
      Make Quasi-Newton update
--
 
      The MO-coefficients are taken from the file:
      /lustre/isaac/scratch/gjones39/ANO-RCC-VTZP/ozone_145.50/ozone_145.50.RasOrb                                                    
      Title: RASSCF average (pseudo-natural) orbitals                                      
 
      Total molecular charge    0.00
 
      ************************************************************************************************************************
      *                                                                                                                      *
      *                                            Wave function control section                                             *
      *                                                                                                                      *
      ************************************************************************************************************************
 
 
                                         RASSCF iterations: Energy and convergence statistics
                                         ----------------------------------------------------
 
      Iter CI   SX   CI       RASSCF       Energy    max ROT     max BLB   max BLB  Level Ln srch  Step   QN   Walltime
          iter iter root      energy       change     param      element    value   shift minimum  type update hh:mm:ss
 Nr of preliminary CI iterations:   6
        1   1    6    0  -224.63170330    0.00E+00   0.32E-03    4  14 1  0.11E-02*  0.00   0.00    SX    NO    0:00:01
        2   1    6    0  -224.63170567   -0.24E-05* -0.18E-03    4  14 1  0.20E-03*  0.00   0.00    SX    NO    0:00:00
        3   1    5    0  -224.63170576   -0.94E-07* -0.11E-03    6  14 1 -0.61E-04   0.00   0.00    SX    NO    0:00:00
        4   7    6    0  -224.63170826   -0.25E-05*  0.19E-03    4  14 1  0.19E-03*  0.00   0.00    SX    NO    0:00:00
        5   3    5    0  -224.63170840   -0.14E-06* -0.81E-04    4  14 1  0.73E-04   0.00   1.30    QN   YES    0:00:00
        6   5    4    0  -224.63170842   -0.25E-07* -0.45E-04    6  22 1  0.14E-04   0.00   0.99    QN   YES    0:00:00
        7   1    4    0  -224.63170842   -0.19E-08  -0.12E-03    6  22 1  0.23E-04   0.00   1.37    QN   YES    0:00:00
      Convergence after  7 iterations
 
  Dmat in MO in SXCTL bf call to SXHAM                                                                                    
  mat. size =     9x    9
 
        1.9605298959711890
        0.0000000314231197      1.9477429481664772
       -0.0000000144831326      0.0000000000051390      1.9733492676794682
        0.0006761607038367     -0.0000000446649969     -0.0000000622070227      1.6045538456781738
       -0.0000001411028984     -0.0003689485167723     -0.0000000003307495     -0.0000000157533967      1.7041471637959293
        0.0000000000631032     -0.0000000502493861      0.0000000791440973     -0.0000000001615757     -0.0000000314147027
        1.8094440594590651
        0.0000000489080662      0.0000000002649599      0.0002210421474569      0.0000002133569141     -0.0000000000230969
        0.0000000756505504      0.8825848008880899
        0.0015818961647060     -0.0000000738289018      0.0000000310928517      0.0017069690526538     -0.0000000227201483
       -0.0000000001137066      0.0000002417156764      0.0751998629420701
       -0.0000000344372263     -0.0000298708394401      0.0000000001253857      0.0000000079220017     -0.0021728550829739
        0.0000000259097340     -0.0000000000395699     -0.0000000462539379      0.0424481554195365
        8   3    4    0  -224.63170842    0.11E-08  -0.12E-03    6  22 1 -0.32E-04   0.00   1.37    QN   YES    0:00:00
 
      ************************************************************************************************************************
                                                      Wave function printout:
                       occupation of active orbitals, and spin coupling of open shells (u,d: Spin up or down)
      ************************************************************************************************************************
 
      Note: transformation to natural orbitals
      has been made, which may change the order of the CSFs.
 
      printout of CI-coefficients larger than  0.05 for root  1
      energy=    -224.688431
      conf/sym  111111111     Coeff  Weight
             1  222222000  -0.90624 0.82128
             4  222220200   0.27864 0.07764
            10  2222udud0   0.06193 0.00383
            12  2222uudd0   0.06668 0.00445
            72  222u2du0d  -0.05632 0.00317
            74  222u2ud0d  -0.05780 0.00334
           126  22u222d00  -0.06193 0.00384
           205  2u222dud0   0.07560 0.00572
           207  2u222udd0   0.07435 0.00553
           551  220222200   0.07949 0.00632
           611  2ud222u0d   0.06295 0.00396
           652  u2d222ud0  -0.06680 0.00446
           731  202222002   0.05791 0.00335
           764  ud22220ud  -0.06699 0.00449
           805  022222020   0.06774 0.00459
           992  2uu222d0d   0.06533 0.00427
          1031  u2u222dd0  -0.05451 0.00297
 
      printout of CI-coefficients larger than  0.05 for root  2
      energy=    -224.625829
      conf/sym  111111111     Coeff  Weight
             5  2222ud200  -0.30283 0.09170
            11  222202ud0  -0.05658 0.00320
            51  222u22d00   0.90833 0.82506
            61  222uud2d0   0.05213 0.00272
           202  2u222d200   0.07114 0.00506
           208  2u22u2dd0  -0.06739 0.00454
           897  2u2u2d2d0  -0.05848 0.00342
          1285  2udu2220d  -0.05204 0.00271
          1321  u2du222d0   0.05067 0.00257
          1381  202u22d02  -0.05968 0.00356
          1406  ud2u22dud   0.07235 0.00523
          1442  022u22d20  -0.07603 0.00578
          1485  2uud2220d  -0.05990 0.00359
          1521  u2ud222d0   0.05564 0.00310
 
      printout of CI-coefficients larger than  0.05 for root  3
      energy=    -224.580865
      conf/sym  111111111     Coeff  Weight
             3  2222u2d00   0.82935 0.68783
            52  222u2d200  -0.48263 0.23293
           277  u2222d200   0.05716 0.00327
           281  u222d2ud0   0.05137 0.00264
           361  222022u0d   0.05413 0.00293
           452  2u2d22ud0  -0.05039 0.00254
           466  2u2du2dud   0.05166 0.00267
           654  u2d2u22d0   0.05470 0.00299
           733  2022u2d02  -0.05522 0.00305
           766  ud22u2dud   0.06832 0.00467
           807  0222u2d20  -0.07159 0.00512
           994  2uu2d220d  -0.05258 0.00276
          1033  u2u2d22d0   0.05290 0.00280
          1407  ud2u2d2ud  -0.05174 0.00268
 
      Natural orbitals and occupation numbers for root  1
      sym 1:   1.953379   1.940106   1.958866   1.987799   1.990389   1.797237   0.246476   0.079277   0.046471
 
      Natural orbitals and occupation numbers for root  2
      sym 1:   1.963459   1.945768   1.983300   1.114820   1.866182   1.885525   1.127937   0.073433   0.039577
 
      Natural orbitals and occupation numbers for root  3
      sym 1:   1.956749   1.952673   1.982752   1.720245   1.262081   1.745570   1.268472   0.071691   0.039767
 
      ************************************************************************************************************************
      *                                                                                                                      *
      *                                                    Final results                                                     *
      *                                                                                                                      *
      ************************************************************************************************************************
 
 
++    Wave function specifications:
      -----------------------------
 
      Number of closed shell electrons          12
      Number of electrons in active shells      12
      Max number of holes in RAS1 space          0
      Max nr of electrons in RAS3 space          0
      Number of inactive orbitals                6
      Number of active orbitals                  9
      Number of secondary orbitals              75
      Spin quantum number                      0.0
      State symmetry                             1
--
 
++    Orbital specifications:
      -----------------------
 
      Symmetry species                           1
                                                 a
      Frozen orbitals                            0
      Inactive orbitals                          6
      Active orbitals                            9
      RAS1 orbitals                              0
      RAS2 orbitals                              9
      RAS3 orbitals                              0
      Secondary orbitals                        75
      Deleted orbitals                           0
      Number of basis functions                 90
--
 
++    CI expansion specifications:
      ----------------------------
 
      Number of CSFs                          2520
      Number of determinants                  3570
      Number of root(s) required                 3
      CI roots used                              1     2     3
      weights                                0.333 0.333 0.333
      highest root included in the CI            3
      Root passed to geometry opt.               3
--
 
++    Final optimization conditions:
      ------------------------------
 
      Average CI energy                            -224.63170842
      RASSCF energy for state  3                   -224.58086525
      Super-CI energy                                -0.00000000
      RASSCF energy change                            0.00000000
      Max change in MO coefficients               0.110E-03
      Max non-diagonal density matrix element    -0.123E-03
      Maximum BLB matrix element                 -0.318E-04
      (orbital pair   6,  22 in symmetry   1)
      Norm of electronic gradient            0.784E-01
--
 
 
      Final state energy(ies):
      ------------------------
 
::    RASSCF root number  1 Total energy:   -224.68843119
::    RASSCF root number  2 Total energy:   -224.62582883
::    RASSCF root number  3 Total energy:   -224.58086525
 
++    Molecular orbitals:
      -------------------
 
      Pseudonatural active orbitals and approximate occupation numbers
 
 
 
 
      Molecular orbitals for symmetry species 1: a  
 
 
      Orbital                1         2         3         4         5         6         7         8         9        10
      Energy          -20.7823  -20.7075  -20.7075   -1.5218   -1.3222   -1.0177    0.0000    0.0000    0.0000    0.0000
      Occ. No.          2.0000    2.0000    2.0000    2.0000    2.0000    2.0000    1.9605    1.9477    1.9733    1.6046
 
    1 O1     1s         0.0044   -0.7088    0.7039   -0.0067    0.0003    0.0124   -0.0140   -0.0253    0.0000   -0.0015
    2 O1     2s         0.0029    0.0048   -0.0050    0.4947   -0.6997    0.5370   -0.1212   -0.1344   -0.0000   -0.0601
    3 O1     3s         0.0016    0.0036   -0.0036    0.0004   -0.0059    0.0207   -0.0207   -0.0554    0.0000    0.0104
    4 O1     4s         0.0002    0.0007   -0.0006    0.0012   -0.0008    0.0024   -0.0034   -0.0110    0.0000    0.0043
    5 O1     2px       -0.0005   -0.0007    0.0008   -0.0578   -0.0318    0.1127    0.1455   -0.1626   -0.0000    0.7055
    6 O1     3px       -0.0005   -0.0008    0.0005    0.0157    0.0026   -0.0209   -0.0102    0.0199    0.0000    0.0198
    7 O1     4px       -0.0001    0.0002   -0.0004    0.0025    0.0008   -0.0010   -0.0015   -0.0001   -0.0000   -0.0037
    8 O1     2py       -0.0017   -0.0018    0.0022    0.0247   -0.0861    0.0648   -0.3222   -0.4119    0.0000    0.0993
    9 O1     3py       -0.0010   -0.0021    0.0024    0.0003    0.0023   -0.0189    0.0322    0.0530   -0.0000   -0.0120
   10 O1     4py        0.0004    0.0014   -0.0014   -0.0013   -0.0014    0.0030    0.0033    0.0041   -0.0000   -0.0027
   11 O1     2pz       -0.0000    0.0000   -0.0000    0.0000   -0.0000    0.0000    0.0000    0.0000    0.3559    0.0000
   12 O1     3pz        0.0000   -0.0000    0.0000   -0.0000    0.0000   -0.0000   -0.0000    0.0000   -0.0244    0.0000
   13 O1     4pz        0.0000    0.0000   -0.0000   -0.0000    0.0000    0.0000   -0.0000   -0.0000   -0.0045    0.0000
   14 O1     3d2-       0.0002    0.0005   -0.0005    0.0107   -0.0013   -0.0134   -0.0070    0.0175   -0.0000   -0.0070
   15 O1     4d2-       0.0001    0.0003   -0.0003    0.0008   -0.0004   -0.0011   -0.0015    0.0011   -0.0000   -0.0005
   16 O1     3d1-       0.0000    0.0000   -0.0000   -0.0000    0.0000   -0.0000   -0.0000   -0.0000   -0.0258    0.0000
   17 O1     4d1-       0.0000    0.0000    0.0000   -0.0000   -0.0000   -0.0000   -0.0000   -0.0000   -0.0035    0.0000
   18 O1     3d0       -0.0003   -0.0005    0.0006   -0.0056    0.0017    0.0050   -0.0121   -0.0168    0.0000    0.0028
   19 O1     4d0       -0.0002   -0.0003    0.0004   -0.0005    0.0006    0.0001   -0.0011   -0.0010    0.0000   -0.0005
   20 O1     3d1+       0.0000    0.0000    0.0000   -0.0000    0.0000   -0.0000    0.0000   -0.0000   -0.0065    0.0000
   21 O1     4d1+       0.0000    0.0000   -0.0000   -0.0000    0.0000    0.0000    0.0000    0.0000   -0.0007    0.0000
   22 O1     3d2+      -0.0005   -0.0008    0.0009   -0.0051    0.0021    0.0040   -0.0281   -0.0245    0.0000    0.0034
   23 O1     4d2+      -0.0002   -0.0004    0.0005   -0.0010    0.0007    0.0004   -0.0030   -0.0018   -0.0000   -0.0009
   24 O1     4f3-       0.0001    0.0001   -0.0001    0.0007   -0.0013    0.0006    0.0070    0.0046   -0.0000   -0.0004
   25 O1     4f2-      -0.0000   -0.0000    0.0000    0.0000   -0.0000    0.0000    0.0000    0.0000    0.0026   -0.0000
   26 O1     4f1-       0.0001    0.0001   -0.0001    0.0021   -0.0013   -0.0011    0.0038    0.0049   -0.0000   -0.0012
   27 O1     4f0        0.0000    0.0000    0.0000   -0.0000   -0.0000   -0.0000   -0.0000   -0.0000   -0.0042    0.0000
   28 O1     4f1+       0.0000    0.0000   -0.0000    0.0011   -0.0003   -0.0010   -0.0002    0.0014   -0.0000   -0.0007
   29 O1     4f2+       0.0000    0.0000    0.0000   -0.0000   -0.0000   -0.0000   -0.0000   -0.0000   -0.0052   -0.0000
   30 O1     4f3+       0.0000    0.0001   -0.0001    0.0035   -0.0013   -0.0035   -0.0007    0.0057   -0.0000   -0.0027
   31 O2     1s         0.9992    0.0000   -0.0040   -0.0229   -0.0000   -0.0184   -0.0185    0.0000    0.0000    0.0313
   32 O2     2s        -0.0054   -0.0000    0.0105    0.4852    0.0000   -0.7300    0.2920   -0.0000   -0.0000    0.3214
   33 O2     3s        -0.0041   -0.0000    0.0058   -0.0456   -0.0000   -0.0373   -0.0483    0.0000    0.0000    0.0856
   34 O2     4s        -0.0006   -0.0000    0.0009   -0.0084   -0.0000   -0.0075   -0.0102    0.0000    0.0000    0.0187
   35 O2     2px       -0.0006   -0.0000    0.0027   -0.2170   -0.0000    0.3712    0.6371   -0.0000   -0.0000   -0.4349
   36 O2     3px       -0.0010   -0.0000    0.0013   -0.0110   -0.0000   -0.0230   -0.0553    0.0000    0.0000   -0.0419
   37 O2     4px        0.0015    0.0000   -0.0004    0.0008    0.0000   -0.0024   -0.0109    0.0000   -0.0000   -0.0046
   38 O2     2py       -0.0000   -0.0062   -0.0000    0.0000   -0.0548   -0.0000    0.0000    0.6035   -0.0000    0.0000
   39 O2     3py        0.0000   -0.0038   -0.0000   -0.0000    0.0361    0.0000   -0.0000   -0.0772    0.0000   -0.0000
   40 O2     4py       -0.0000    0.0011    0.0000    0.0000   -0.0053   -0.0000    0.0000   -0.0046    0.0000   -0.0000
   41 O2     2pz       -0.0000    0.0000   -0.0000    0.0000   -0.0000    0.0000    0.0000    0.0000    0.7212   -0.0000
   42 O2     3pz        0.0000    0.0000    0.0000   -0.0000    0.0000   -0.0000   -0.0000   -0.0000   -0.0498   -0.0000
   43 O2     4pz       -0.0000   -0.0000    0.0000   -0.0000    0.0000   -0.0000   -0.0000   -0.0000   -0.0137   -0.0000
   44 O2     3d2-       0.0000   -0.0010   -0.0000    0.0000   -0.0141   -0.0000    0.0000    0.0347   -0.0000    0.0000
   45 O2     4d2-       0.0000   -0.0005   -0.0000    0.0000   -0.0012   -0.0000    0.0000    0.0028   -0.0000    0.0000
   46 O2     3d1-      -0.0000    0.0000    0.0000    0.0000    0.0000   -0.0000   -0.0000    0.0000   -0.0000   -0.0000
   47 O2     4d1-      -0.0000    0.0000    0.0000   -0.0000    0.0000   -0.0000   -0.0000    0.0000   -0.0000   -0.0000
   48 O2     3d0        0.0007    0.0000   -0.0010   -0.0069    0.0000   -0.0096   -0.0194    0.0000    0.0000    0.0196
   49 O2     4d0        0.0004    0.0000   -0.0005    0.0010    0.0000   -0.0008   -0.0011    0.0000    0.0000    0.0022
   50 O2     3d1+      -0.0000    0.0000   -0.0000    0.0000   -0.0000   -0.0000    0.0000    0.0000    0.0225   -0.0000
   51 O2     4d1+      -0.0000    0.0000   -0.0000   -0.0000   -0.0000   -0.0000    0.0000   -0.0000    0.0025   -0.0000
   52 O2     3d2+       0.0008    0.0000   -0.0013   -0.0212   -0.0000    0.0026    0.0043   -0.0000    0.0000    0.0363
   53 O2     4d2+       0.0005    0.0000   -0.0007   -0.0011   -0.0000    0.0008    0.0006    0.0000    0.0000    0.0055
   54 O2     4f3-       0.0000    0.0001    0.0000   -0.0000    0.0027   -0.0000   -0.0000   -0.0080   -0.0000   -0.0000
   55 O2     4f2-      -0.0000    0.0000   -0.0000   -0.0000    0.0000   -0.0000   -0.0000    0.0000   -0.0000   -0.0000
   56 O2     4f1-      -0.0000    0.0001    0.0000   -0.0000    0.0036    0.0000   -0.0000   -0.0085    0.0000   -0.0000
   57 O2     4f0        0.0000   -0.0000    0.0000   -0.0000    0.0000   -0.0000   -0.0000   -0.0000   -0.0074    0.0000
   58 O2     4f1+       0.0001    0.0000   -0.0001   -0.0008   -0.0000   -0.0014   -0.0038    0.0000    0.0000    0.0005
   59 O2     4f2+       0.0000   -0.0000    0.0000   -0.0000    0.0000   -0.0000    0.0000   -0.0000   -0.0077   -0.0000
   60 O2     4f3+       0.0002    0.0000   -0.0002   -0.0037   -0.0000   -0.0033   -0.0107    0.0000    0.0000    0.0028
   61 O3     1s         0.0044    0.7040    0.7088   -0.0067   -0.0003    0.0124   -0.0140    0.0253    0.0000   -0.0015
   62 O3     2s         0.0029   -0.0048   -0.0050    0.4947    0.6997    0.5370   -0.1212    0.1344   -0.0000   -0.0601
   63 O3     3s         0.0016   -0.0035   -0.0036    0.0004    0.0059    0.0207   -0.0207    0.0554    0.0000    0.0104
   64 O3     4s         0.0002   -0.0007   -0.0006    0.0012    0.0008    0.0024   -0.0034    0.0110    0.0000    0.0043
   65 O3     2px       -0.0005    0.0007    0.0008   -0.0578    0.0318    0.1127    0.1455    0.1626   -0.0000    0.7055
   66 O3     3px       -0.0005    0.0008    0.0005    0.0157   -0.0026   -0.0209   -0.0102   -0.0199    0.0000    0.0198
   67 O3     4px       -0.0001   -0.0002   -0.0004    0.0025   -0.0008   -0.0010   -0.0015    0.0001   -0.0000   -0.0037
   68 O3     2py        0.0017   -0.0018   -0.0022   -0.0247   -0.0861   -0.0648    0.3222   -0.4119   -0.0000   -0.0993
   69 O3     3py        0.0010   -0.0020   -0.0024   -0.0003    0.0023    0.0189   -0.0322    0.0530    0.0000    0.0120
   70 O3     4py       -0.0004    0.0014    0.0014    0.0013   -0.0014   -0.0030   -0.0033    0.0041    0.0000    0.0027
   71 O3     2pz       -0.0000   -0.0000   -0.0000    0.0000    0.0000    0.0000    0.0000   -0.0000    0.3559    0.0000
   72 O3     3pz        0.0000    0.0000    0.0000   -0.0000   -0.0000   -0.0000   -0.0000   -0.0000   -0.0244    0.0000
   73 O3     4pz        0.0000   -0.0000   -0.0000   -0.0000   -0.0000    0.0000   -0.0000    0.0000   -0.0045    0.0000
   74 O3     3d2-      -0.0002    0.0005    0.0005   -0.0107   -0.0013    0.0134    0.0070    0.0175    0.0000    0.0070
   75 O3     4d2-      -0.0001    0.0003    0.0003   -0.0008   -0.0004    0.0011    0.0015    0.0011    0.0000    0.0005
   76 O3     3d1-      -0.0000    0.0000    0.0000    0.0000    0.0000    0.0000    0.0000   -0.0000    0.0258   -0.0000
   77 O3     4d1-      -0.0000    0.0000   -0.0000    0.0000   -0.0000    0.0000    0.0000   -0.0000    0.0035   -0.0000
   78 O3     3d0       -0.0003    0.0005    0.0006   -0.0056   -0.0017    0.0050   -0.0121    0.0168    0.0000    0.0028
   79 O3     4d0       -0.0002    0.0003    0.0004   -0.0005   -0.0006    0.0001   -0.0011    0.0010    0.0000   -0.0005
   80 O3     3d1+       0.0000   -0.0000    0.0000   -0.0000   -0.0000   -0.0000    0.0000    0.0000   -0.0065    0.0000
   81 O3     4d1+       0.0000   -0.0000   -0.0000   -0.0000   -0.0000    0.0000    0.0000   -0.0000   -0.0007    0.0000
   82 O3     3d2+      -0.0005    0.0008    0.0009   -0.0051   -0.0021    0.0040   -0.0281    0.0245    0.0000    0.0034
   83 O3     4d2+      -0.0002    0.0004    0.0005   -0.0010   -0.0007    0.0004   -0.0030    0.0018   -0.0000   -0.0009
   84 O3     4f3-      -0.0001    0.0001    0.0001   -0.0007   -0.0013   -0.0006   -0.0070    0.0046    0.0000    0.0004
   85 O3     4f2-       0.0000   -0.0000   -0.0000   -0.0000   -0.0000   -0.0000   -0.0000    0.0000   -0.0026    0.0000
   86 O3     4f1-      -0.0001    0.0001    0.0001   -0.0021   -0.0013    0.0011   -0.0038    0.0049    0.0000    0.0012
   87 O3     4f0        0.0000   -0.0000    0.0000   -0.0000    0.0000   -0.0000   -0.0000    0.0000   -0.0042    0.0000
   88 O3     4f1+       0.0000   -0.0000   -0.0000    0.0011    0.0003   -0.0010   -0.0002   -0.0014   -0.0000   -0.0007
   89 O3     4f2+       0.0000   -0.0000    0.0000   -0.0000    0.0000   -0.0000   -0.0000    0.0000   -0.0052   -0.0000
   90 O3     4f3+       0.0000   -0.0001   -0.0001    0.0035    0.0013   -0.0035   -0.0007   -0.0057   -0.0000   -0.0027
 
 
      Orbital               11        12        13        14        15        16        17        18        19        20
      Energy            0.0000    0.0000    0.0000    0.0000    0.0000    0.1785    0.2267    0.2365    0.2792    0.3621
      Occ. No.          1.7041    1.8094    0.8826    0.0752    0.0424    0.0000    0.0000    0.0000    0.0000    0.0000
 
    1 O1     1s         0.0021   -0.0000   -0.0000   -0.0211   -0.0472   -0.2157   -0.0992   -0.0000    0.0933   -0.0085
    2 O1     2s         0.0028    0.0000   -0.0000   -0.2896   -0.4661   -1.5516   -0.6981   -0.0000    0.6655   -0.0141
    3 O1     3s         0.0038    0.0000    0.0000   -0.0458   -0.1023   -0.9455   -0.4474   -0.0000    0.4831    0.0171
    4 O1     4s         0.0011    0.0000   -0.0000   -0.0046   -0.0162   -0.2137   -0.0971   -0.0000    0.1121    0.0088
    5 O1     2px       -0.6569    0.0000   -0.0000    0.0014    0.2586    0.2627    0.0505    0.0000   -0.1291   -0.1821
    6 O1     3px        0.0019   -0.0000   -0.0000    0.0376   -0.0747    0.3202    0.3943    0.0000    0.1813   -0.8522
    7 O1     4px        0.0069    0.0000    0.0000   -0.0007    0.0127    0.0450    0.1577    0.0000    0.1316   -0.3392
    8 O1     2py        0.2687   -0.0000    0.0000    0.6904    0.6251    0.5365    0.4895    0.0000   -0.5993   -0.1368
    9 O1     3py        0.0012    0.0000    0.0000   -0.0719   -0.0265    0.7698    0.5854    0.0000   -0.9969   -0.1135
   10 O1     4py       -0.0030    0.0000    0.0000   -0.0073   -0.0145    0.1085    0.0719   -0.0000   -0.2294   -0.0162
   11 O1     2pz       -0.0000   -0.7028    0.6524    0.0000   -0.0000    0.0000    0.0000   -0.0410    0.0000   -0.0000
   12 O1     3pz       -0.0000    0.0012    0.0140    0.0000   -0.0000    0.0000   -0.0000    0.4136   -0.0000   -0.0000
   13 O1     4pz        0.0000    0.0085   -0.0031   -0.0000    0.0000    0.0000   -0.0000    0.2122   -0.0000   -0.0000
   14 O1     3d2-       0.0127    0.0000    0.0000   -0.0067    0.0145   -0.0634   -0.0330   -0.0000    0.0316    0.0148
   15 O1     4d2-       0.0021    0.0000    0.0000    0.0000    0.0015   -0.0402   -0.0234   -0.0000    0.0192    0.0186
   16 O1     3d1-       0.0000    0.0172    0.0062    0.0000    0.0000   -0.0000   -0.0000    0.0048   -0.0000    0.0000
   17 O1     4d1-       0.0000    0.0028    0.0010   -0.0000    0.0000   -0.0000    0.0000   -0.0022   -0.0000    0.0000
   18 O1     3d0        0.0032   -0.0000   -0.0000    0.0106    0.0058    0.0582    0.0471    0.0000   -0.0506   -0.0142
   19 O1     4d0        0.0008   -0.0000   -0.0000    0.0028    0.0054    0.0353    0.0303    0.0000   -0.0348   -0.0125
   20 O1     3d1+      -0.0000    0.0038    0.0025    0.0000    0.0000   -0.0000   -0.0000    0.0031   -0.0000    0.0000
   21 O1     4d1+      -0.0000    0.0003    0.0002   -0.0000   -0.0000   -0.0000   -0.0000    0.0003   -0.0000    0.0000
   22 O1     3d2+       0.0119   -0.0000   -0.0000    0.0213    0.0176    0.0818    0.0746    0.0000   -0.0803   -0.0026
   23 O1     4d2+       0.0019    0.0000   -0.0000    0.0075    0.0106    0.0478    0.0468    0.0000   -0.0580   -0.0035
   24 O1     4f3-      -0.0035    0.0000    0.0000   -0.0031   -0.0048   -0.0070   -0.0023    0.0000    0.0105   -0.0025
   25 O1     4f2-       0.0000   -0.0016   -0.0007   -0.0000   -0.0000    0.0000   -0.0000    0.0014   -0.0000   -0.0000
   26 O1     4f1-      -0.0012    0.0000    0.0000   -0.0032   -0.0030   -0.0056   -0.0059   -0.0000    0.0093    0.0050
   27 O1     4f0       -0.0000    0.0026    0.0018    0.0000    0.0000   -0.0000    0.0000   -0.0021    0.0000    0.0000
   28 O1     4f1+       0.0006    0.0000   -0.0000   -0.0008   -0.0000   -0.0011   -0.0025   -0.0000    0.0018    0.0037
   29 O1     4f2+       0.0000    0.0034    0.0001   -0.0000   -0.0000    0.0000    0.0000   -0.0025   -0.0000    0.0000
   30 O1     4f3+       0.0028   -0.0000    0.0000   -0.0019    0.0017   -0.0057   -0.0071   -0.0000    0.0056    0.0094
   31 O2     1s        -0.0000   -0.0000   -0.0000    0.0780    0.0000    0.0000    0.2454    0.0000   -0.2922   -0.0000
   32 O2     2s         0.0000   -0.0000    0.0000    0.8167    0.0000    0.0000    1.6784    0.0000   -1.9531   -0.0000
   33 O2     3s        -0.0000   -0.0000    0.0000    0.0702    0.0000    0.0000    1.0227    0.0000   -1.1488   -0.0000
   34 O2     4s        -0.0000   -0.0000    0.0000    0.0253    0.0000    0.0000    0.2151    0.0000   -0.2303    0.0000
   35 O2     2px        0.0000   -0.0000    0.0000    0.5405    0.0000    0.0000    0.2012   -0.0000   -0.4157    0.0000
   36 O2     3px       -0.0000    0.0000    0.0000   -0.1479   -0.0000   -0.0000    0.5242    0.0000   -0.3484    0.0000
   37 O2     4px       -0.0000   -0.0000   -0.0000    0.0194   -0.0000   -0.0000    0.1601    0.0000    0.0306    0.0000
   38 O2     2py       -0.0195    0.0000    0.0000   -0.0000    1.0920    1.4212   -0.0000    0.0000    0.0000   -0.0668
   39 O2     3py       -0.0141   -0.0000    0.0000    0.0000   -0.0856    1.6056    0.0000    0.0000    0.0000    0.1987
   40 O2     4py       -0.0024    0.0000   -0.0000   -0.0000    0.0035    0.1709    0.0000    0.0000    0.0000    0.1338
   41 O2     2pz       -0.0000   -0.0000   -0.7503   -0.0000   -0.0000    0.0000    0.0000   -0.1373   -0.0000   -0.0000
   42 O2     3pz       -0.0000    0.0000   -0.0327   -0.0000   -0.0000    0.0000   -0.0000    0.2215   -0.0000   -0.0000
   43 O2     4pz       -0.0000    0.0000    0.0023   -0.0000    0.0000   -0.0000   -0.0000    0.1628   -0.0000   -0.0000
   44 O2     3d2-      -0.0398   -0.0000    0.0000    0.0000    0.0197    0.1205    0.0000    0.0000    0.0000    0.0821
   45 O2     4d2-      -0.0068   -0.0000    0.0000    0.0000   -0.0093    0.0721    0.0000    0.0000    0.0000    0.0587
   46 O2     3d1-      -0.0000   -0.0427    0.0000    0.0000    0.0000   -0.0000    0.0000   -0.0000    0.0000    0.0000
   47 O2     4d1-      -0.0000   -0.0073    0.0000    0.0000   -0.0000   -0.0000   -0.0000   -0.0000    0.0000    0.0000
   48 O2     3d0       -0.0000   -0.0000    0.0000    0.0078   -0.0000    0.0000   -0.0792   -0.0000    0.0886    0.0000
[...]

>>> COPY /lustre/isaac/scratch/gjones39/ANO-RCC-VTZP/ozone_145.75/3189875/GMJ_IVECW_H_P_2_.csv /lustre/isaac/scratch/gjones39/ANO-RCC-VTZP/ozone_145.75/GMJ_IVECW_H_P_2_.csv

>>> COPY /lustre/isaac/scratch/gjones39/ANO-RCC-VTZP/ozone_145.75/3189875/GMJ_IVECX_H_P_2_.csv /lustre/isaac/scratch/gjones39/ANO-RCC-VTZP/ozone_145.75/GMJ_IVECX_H_P_2_.csv

>>> COPY /lustre/isaac/scratch/gjones39/ANO-RCC-VTZP/ozone_145.75/3189875/GMJ_IVECC2_H_P_2_.csv /lustre/isaac/scratch/gjones39/ANO-RCC-VTZP/ozone_145.75/GMJ_IVECC2_H_P_2_.csv

>>> COPY /lustre/isaac/scratch/gjones39/ANO-RCC-VTZP/ozone_145.75/3189875/GMJ_e2_H_P_2_.csv /lustre/isaac/scratch/gjones39/ANO-RCC-VTZP/ozone_145.75/GMJ_e2_H_P_2_.csv

>>> END FOREACH

>>> EXPORT j = M

>>> IF (-FILE GMJ_e2_${i}_${j}_${k}_.csv)

>>> COPY /lustre/isaac/scratch/gjones39/ANO-RCC-VTZP/ozone_145.75/3189875/GMJ_RHS_H_M_2_.csv /lustre/isaac/scratch/gjones39/ANO-RCC-VTZP/ozone_145.75/GMJ_RHS_H_M_2_.csv

>>> COPY /lustre/isaac/scratch/gjones39/ANO-RCC-VTZP/ozone_145.75/3189875/GMJ_IVECW_H_M_2_.csv /lustre/isaac/scratch/gjones39/ANO-RCC-VTZP/ozone_145.75/GMJ_IVECW_H_M_2_.csv

>>> COPY /lustre/isaac/scratch/gjones39/ANO-RCC-VTZP/ozone_145.75/3189875/GMJ_IVECX_H_M_2_.csv /lustre/isaac/scratch/gjones39/ANO-RCC-VTZP/ozone_145.75/GMJ_IVECX_H_M_2_.csv

>>> COPY /lustre/isaac/scratch/gjones39/ANO-RCC-VTZP/ozone_145.75/3189875/GMJ_IVECC2_H_M_2_.csv /lustre/isaac/scratch/gjones39/ANO-RCC-VTZP/ozone_145.75/GMJ_IVECC2_H_M_2_.csv

>>> COPY /lustre/isaac/scratch/gjones39/ANO-RCC-VTZP/ozone_145.75/3189875/GMJ_e2_H_M_2_.csv /lustre/isaac/scratch/gjones39/ANO-RCC-VTZP/ozone_145.75/GMJ_e2_H_M_2_.csv

>>> END FOREACH

>>> END FOREACH

>>> END FOREACH

>>> EXPORT k = 3

>>> EXPORT i = B

>>> EXPORT j = P

>>> IF (-FILE GMJ_e2_${i}_${j}_${k}_.csv)

>>> COPY /lustre/isaac/scratch/gjones39/ANO-RCC-VTZP/ozone_145.75/3189875/GMJ_RHS_B_P_3_.csv /lustre/isaac/scratch/gjones39/ANO-RCC-VTZP/ozone_145.75/GMJ_RHS_B_P_3_.csv

>>> COPY /lustre/isaac/scratch/gjones39/ANO-RCC-VTZP/ozone_145.75/3189875/GMJ_IVECW_B_P_3_.csv /lustre/isaac/scratch/gjones39/ANO-RCC-VTZP/ozone_145.75/GMJ_IVECW_B_P_3_.csv

>>> COPY /lustre/isaac/scratch/gjones39/ANO-RCC-VTZP/ozone_145.75/3189875/GMJ_IVECX_B_P_3_.csv /lustre/isaac/scratch/gjones39/ANO-RCC-VTZP/ozone_145.75/GMJ_IVECX_B_P_3_.csv

>>> COPY /lustre/isaac/scratch/gjones39/ANO-RCC-VTZP/ozone_145.75/3189875/GMJ_IVECC2_B_P_3_.csv /lustre/isaac/scratch/gjones39/ANO-RCC-VTZP/ozone_145.75/GMJ_IVECC2_B_P_3_.csv

>>> COPY /lustre/isaac/scratch/gjones39/ANO-RCC-VTZP/ozone_145.75/3189875/GMJ_e2_B_P_3_.csv /lustre/isaac/scratch/gjones39/ANO-RCC-VTZP/ozone_145.75/GMJ_e2_B_P_3_.csv

>>> END FOREACH

>>> EXPORT j = M

>>> IF (-FILE GMJ_e2_${i}_${j}_${k}_.csv)

>>> COPY /lustre/isaac/scratch/gjones39/ANO-RCC-VTZP/ozone_145.75/3189875/GMJ_RHS_B_M_3_.csv /lustre/isaac/scratch/gjones39/ANO-RCC-VTZP/ozone_145.75/GMJ_RHS_B_M_3_.csv

>>> COPY /lustre/isaac/scratch/gjones39/ANO-RCC-VTZP/ozone_145.75/3189875/GMJ_IVECW_B_M_3_.csv /lustre/isaac/scratch/gjones39/ANO-RCC-VTZP/ozone_145.75/GMJ_IVECW_B_M_3_.csv

>>> COPY /lustre/isaac/scratch/gjones39/ANO-RCC-VTZP/ozone_145.75/3189875/GMJ_IVECX_B_M_3_.csv /lustre/isaac/scratch/gjones39/ANO-RCC-VTZP/ozone_145.75/GMJ_IVECX_B_M_3_.csv

>>> COPY /lustre/isaac/scratch/gjones39/ANO-RCC-VTZP/ozone_145.75/3189875/GMJ_IVECC2_B_M_3_.csv /lustre/isaac/scratch/gjones39/ANO-RCC-VTZP/ozone_145.75/GMJ_IVECC2_B_M_3_.csv

>>> COPY /lustre/isaac/scratch/gjones39/ANO-RCC-VTZP/ozone_145.75/3189875/GMJ_e2_B_M_3_.csv /lustre/isaac/scratch/gjones39/ANO-RCC-VTZP/ozone_145.75/GMJ_e2_B_M_3_.csv

>>> END FOREACH

>>> END FOREACH

>>> EXPORT i = E

>>> EXPORT j = P

>>> IF (-FILE GMJ_e2_${i}_${j}_${k}_.csv)

>>> COPY /lustre/isaac/scratch/gjones39/ANO-RCC-VTZP/ozone_145.75/3189875/GMJ_RHS_E_P_3_.csv /lustre/isaac/scratch/gjones39/ANO-RCC-VTZP/ozone_145.75/GMJ_RHS_E_P_3_.csv

>>> COPY /lustre/isaac/scratch/gjones39/ANO-RCC-VTZP/ozone_145.75/3189875/GMJ_IVECW_E_P_3_.csv /lustre/isaac/scratch/gjones39/ANO-RCC-VTZP/ozone_145.75/GMJ_IVECW_E_P_3_.csv

>>> COPY /lustre/isaac/scratch/gjones39/ANO-RCC-VTZP/ozone_145.75/3189875/GMJ_IVECX_E_P_3_.csv /lustre/isaac/scratch/gjones39/ANO-RCC-VTZP/ozone_145.75/GMJ_IVECX_E_P_3_.csv

>>> COPY /lustre/isaac/scratch/gjones39/ANO-RCC-VTZP/ozone_145.75/3189875/GMJ_IVECC2_E_P_3_.csv /lustre/isaac/scratch/gjones39/ANO-RCC-VTZP/ozone_145.75/GMJ_IVECC2_E_P_3_.csv

>>> COPY /lustre/isaac/scratch/gjones39/ANO-RCC-VTZP/ozone_145.75/3189875/GMJ_e2_E_P_3_.csv /lustre/isaac/scratch/gjones39/ANO-RCC-VTZP/ozone_145.75/GMJ_e2_E_P_3_.csv

>>> END FOREACH

>>> EXPORT j = M

>>> IF (-FILE GMJ_e2_${i}_${j}_${k}_.csv)

>>> COPY /lustre/isaac/scratch/gjones39/ANO-RCC-VTZP/ozone_145.75/3189875/GMJ_RHS_E_M_3_.csv /lustre/isaac/scratch/gjones39/ANO-RCC-VTZP/ozone_145.75/GMJ_RHS_E_M_3_.csv

>>> COPY /lustre/isaac/scratch/gjones39/ANO-RCC-VTZP/ozone_145.75/3189875/GMJ_IVECW_E_M_3_.csv /lustre/isaac/scratch/gjones39/ANO-RCC-VTZP/ozone_145.75/GMJ_IVECW_E_M_3_.csv

>>> COPY /lustre/isaac/scratch/gjones39/ANO-RCC-VTZP/ozone_145.75/3189875/GMJ_IVECX_E_M_3_.csv /lustre/isaac/scratch/gjones39/ANO-RCC-VTZP/ozone_145.75/GMJ_IVECX_E_M_3_.csv

>>> COPY /lustre/isaac/scratch/gjones39/ANO-RCC-VTZP/ozone_145.75/3189875/GMJ_IVECC2_E_M_3_.csv /lustre/isaac/scratch/gjones39/ANO-RCC-VTZP/ozone_145.75/GMJ_IVECC2_E_M_3_.csv

>>> COPY /lustre/isaac/scratch/gjones39/ANO-RCC-VTZP/ozone_145.75/3189875/GMJ_e2_E_M_3_.csv /lustre/isaac/scratch/gjones39/ANO-RCC-VTZP/ozone_145.75/GMJ_e2_E_M_3_.csv

>>> END FOREACH

>>> END FOREACH

>>> EXPORT i = F

>>> EXPORT j = P

>>> IF (-FILE GMJ_e2_${i}_${j}_${k}_.csv)

>>> COPY /lustre/isaac/scratch/gjones39/ANO-RCC-VTZP/ozone_145.75/3189875/GMJ_RHS_F_P_3_.csv /lustre/isaac/scratch/gjones39/ANO-RCC-VTZP/ozone_145.75/GMJ_RHS_F_P_3_.csv

>>> COPY /lustre/isaac/scratch/gjones39/ANO-RCC-VTZP/ozone_145.75/3189875/GMJ_IVECW_F_P_3_.csv /lustre/isaac/scratch/gjones39/ANO-RCC-VTZP/ozone_145.75/GMJ_IVECW_F_P_3_.csv

>>> COPY /lustre/isaac/scratch/gjones39/ANO-RCC-VTZP/ozone_145.75/3189875/GMJ_IVECX_F_P_3_.csv /lustre/isaac/scratch/gjones39/ANO-RCC-VTZP/ozone_145.75/GMJ_IVECX_F_P_3_.csv

>>> COPY /lustre/isaac/scratch/gjones39/ANO-RCC-VTZP/ozone_145.75/3189875/GMJ_IVECC2_F_P_3_.csv /lustre/isaac/scratch/gjones39/ANO-RCC-VTZP/ozone_145.75/GMJ_IVECC2_F_P_3_.csv

>>> COPY /lustre/isaac/scratch/gjones39/ANO-RCC-VTZP/ozone_145.75/3189875/GMJ_e2_F_P_3_.csv /lustre/isaac/scratch/gjones39/ANO-RCC-VTZP/ozone_145.75/GMJ_e2_F_P_3_.csv

>>> END FOREACH

>>> EXPORT j = M

>>> IF (-FILE GMJ_e2_${i}_${j}_${k}_.csv)

>>> COPY /lustre/isaac/scratch/gjones39/ANO-RCC-VTZP/ozone_145.75/3189875/GMJ_RHS_F_M_3_.csv /lustre/isaac/scratch/gjones39/ANO-RCC-VTZP/ozone_145.75/GMJ_RHS_F_M_3_.csv

>>> COPY /lustre/isaac/scratch/gjones39/ANO-RCC-VTZP/ozone_145.75/3189875/GMJ_IVECW_F_M_3_.csv /lustre/isaac/scratch/gjones39/ANO-RCC-VTZP/ozone_145.75/GMJ_IVECW_F_M_3_.csv

>>> COPY /lustre/isaac/scratch/gjones39/ANO-RCC-VTZP/ozone_145.75/3189875/GMJ_IVECX_F_M_3_.csv /lustre/isaac/scratch/gjones39/ANO-RCC-VTZP/ozone_145.75/GMJ_IVECX_F_M_3_.csv

>>> COPY /lustre/isaac/scratch/gjones39/ANO-RCC-VTZP/ozone_145.75/3189875/GMJ_IVECC2_F_M_3_.csv /lustre/isaac/scratch/gjones39/ANO-RCC-VTZP/ozone_145.75/GMJ_IVECC2_F_M_3_.csv

>>> COPY /lustre/isaac/scratch/gjones39/ANO-RCC-VTZP/ozone_145.75/3189875/GMJ_e2_F_M_3_.csv /lustre/isaac/scratch/gjones39/ANO-RCC-VTZP/ozone_145.75/GMJ_e2_F_M_3_.csv

>>> END FOREACH

>>> END FOREACH

>>> EXPORT i = G

>>> EXPORT j = P

>>> IF (-FILE GMJ_e2_${i}_${j}_${k}_.csv)

>>> COPY /lustre/isaac/scratch/gjones39/ANO-RCC-VTZP/ozone_145.75/3189875/GMJ_RHS_G_P_3_.csv /lustre/isaac/scratch/gjones39/ANO-RCC-VTZP/ozone_145.75/GMJ_RHS_G_P_3_.csv

>>> COPY /lustre/isaac/scratch/gjones39/ANO-RCC-VTZP/ozone_145.75/3189875/GMJ_IVECW_G_P_3_.csv /lustre/isaac/scratch/gjones39/ANO-RCC-VTZP/ozone_145.75/GMJ_IVECW_G_P_3_.csv

>>> COPY /lustre/isaac/scratch/gjones39/ANO-RCC-VTZP/ozone_145.75/3189875/GMJ_IVECX_G_P_3_.csv /lustre/isaac/scratch/gjones39/ANO-RCC-VTZP/ozone_145.75/GMJ_IVECX_G_P_3_.csv

>>> COPY /lustre/isaac/scratch/gjones39/ANO-RCC-VTZP/ozone_145.75/3189875/GMJ_IVECC2_G_P_3_.csv /lustre/isaac/scratch/gjones39/ANO-RCC-VTZP/ozone_145.75/GMJ_IVECC2_G_P_3_.csv

>>> COPY /lustre/isaac/scratch/gjones39/ANO-RCC-VTZP/ozone_145.75/3189875/GMJ_e2_G_P_3_.csv /lustre/isaac/scratch/gjones39/ANO-RCC-VTZP/ozone_145.75/GMJ_e2_G_P_3_.csv

>>> END FOREACH

>>> EXPORT j = M

>>> IF (-FILE GMJ_e2_${i}_${j}_${k}_.csv)

>>> COPY /lustre/isaac/scratch/gjones39/ANO-RCC-VTZP/ozone_145.75/3189875/GMJ_RHS_G_M_3_.csv /lustre/isaac/scratch/gjones39/ANO-RCC-VTZP/ozone_145.75/GMJ_RHS_G_M_3_.csv

>>> COPY /lustre/isaac/scratch/gjones39/ANO-RCC-VTZP/ozone_145.75/3189875/GMJ_IVECW_G_M_3_.csv /lustre/isaac/scratch/gjones39/ANO-RCC-VTZP/ozone_145.75/GMJ_IVECW_G_M_3_.csv

>>> COPY /lustre/isaac/scratch/gjones39/ANO-RCC-VTZP/ozone_145.75/3189875/GMJ_IVECX_G_M_3_.csv /lustre/isaac/scratch/gjones39/ANO-RCC-VTZP/ozone_145.75/GMJ_IVECX_G_M_3_.csv

>>> COPY /lustre/isaac/scratch/gjones39/ANO-RCC-VTZP/ozone_145.75/3189875/GMJ_IVECC2_G_M_3_.csv /lustre/isaac/scratch/gjones39/ANO-RCC-VTZP/ozone_145.75/GMJ_IVECC2_G_M_3_.csv

>>> COPY /lustre/isaac/scratch/gjones39/ANO-RCC-VTZP/ozone_145.75/3189875/GMJ_e2_G_M_3_.csv /lustre/isaac/scratch/gjones39/ANO-RCC-VTZP/ozone_145.75/GMJ_e2_G_M_3_.csv

>>> END FOREACH

>>> END FOREACH

>>> EXPORT i = H

>>> EXPORT j = P

>>> IF (-FILE GMJ_e2_${i}_${j}_${k}_.csv)

>>> COPY /lustre/isaac/scratch/gjones39/ANO-RCC-VTZP/ozone_145.75/3189875/GMJ_RHS_H_P_3_.csv /lustre/isaac/scratch/gjones39/ANO-RCC-VTZP/ozone_145.75/GMJ_RHS_H_P_3_.csv

>>> COPY /lustre/isaac/scratch/gjones39/ANO-RCC-VTZP/ozone_145.75/3189875/GMJ_IVECW_H_P_3_.csv /lustre/isaac/scratch/gjones39/ANO-RCC-VTZP/ozone_145.75/GMJ_IVECW_H_P_3_.csv

>>> COPY /lustre/isaac/scratch/gjones39/ANO-RCC-VTZP/ozone_145.75/3189875/GMJ_IVECX_H_P_3_.csv /lustre/isaac/scratch/gjones39/ANO-RCC-VTZP/ozone_145.75/GMJ_IVECX_H_P_3_.csv

>>> COPY /lustre/isaac/scratch/gjones39/ANO-RCC-VTZP/ozone_145.75/3189875/GMJ_IVECC2_H_P_3_.csv /lustre/isaac/scratch/gjones39/ANO-RCC-VTZP/ozone_145.75/GMJ_IVECC2_H_P_3_.csv

>>> COPY /lustre/isaac/scratch/gjones39/ANO-RCC-VTZP/ozone_145.75/3189875/GMJ_e2_H_P_3_.csv /lustre/isaac/scratch/gjones39/ANO-RCC-VTZP/ozone_145.75/GMJ_e2_H_P_3_.csv

>>> END FOREACH

>>> EXPORT j = M

>>> IF (-FILE GMJ_e2_${i}_${j}_${k}_.csv)

>>> COPY /lustre/isaac/scratch/gjones39/ANO-RCC-VTZP/ozone_145.75/3189875/GMJ_RHS_H_M_3_.csv /lustre/isaac/scratch/gjones39/ANO-RCC-VTZP/ozone_145.75/GMJ_RHS_H_M_3_.csv

>>> COPY /lustre/isaac/scratch/gjones39/ANO-RCC-VTZP/ozone_145.75/3189875/GMJ_IVECW_H_M_3_.csv /lustre/isaac/scratch/gjones39/ANO-RCC-VTZP/ozone_145.75/GMJ_IVECW_H_M_3_.csv

>>> COPY /lustre/isaac/scratch/gjones39/ANO-RCC-VTZP/ozone_145.75/3189875/GMJ_IVECX_H_M_3_.csv /lustre/isaac/scratch/gjones39/ANO-RCC-VTZP/ozone_145.75/GMJ_IVECX_H_M_3_.csv

>>> COPY /lustre/isaac/scratch/gjones39/ANO-RCC-VTZP/ozone_145.75/3189875/GMJ_IVECC2_H_M_3_.csv /lustre/isaac/scratch/gjones39/ANO-RCC-VTZP/ozone_145.75/GMJ_IVECC2_H_M_3_.csv

>>> COPY /lustre/isaac/scratch/gjones39/ANO-RCC-VTZP/ozone_145.75/3189875/GMJ_e2_H_M_3_.csv /lustre/isaac/scratch/gjones39/ANO-RCC-VTZP/ozone_145.75/GMJ_e2_H_M_3_.csv

>>> END FOREACH

>>> END FOREACH

>>> END FOREACH

>>> EXPORT j = 1

>>> EXPORT i = A

>>> IF (-FILE GMJ_e2_${i}_${j}_.csv)

>>> COPY /lustre/isaac/scratch/gjones39/ANO-RCC-VTZP/ozone_145.75/3189875/GMJ_RHS_A_1_.csv /lustre/isaac/scratch/gjones39/ANO-RCC-VTZP/ozone_145.75/GMJ_RHS_A_1_.csv

>>> COPY /lustre/isaac/scratch/gjones39/ANO-RCC-VTZP/ozone_145.75/3189875/GMJ_IVECW_A_1_.csv /lustre/isaac/scratch/gjones39/ANO-RCC-VTZP/ozone_145.75/GMJ_IVECW_A_1_.csv

>>> COPY /lustre/isaac/scratch/gjones39/ANO-RCC-VTZP/ozone_145.75/3189875/GMJ_IVECX_A_1_.csv /lustre/isaac/scratch/gjones39/ANO-RCC-VTZP/ozone_145.75/GMJ_IVECX_A_1_.csv

>>> COPY /lustre/isaac/scratch/gjones39/ANO-RCC-VTZP/ozone_145.75/3189875/GMJ_IVECC2_A_1_.csv /lustre/isaac/scratch/gjones39/ANO-RCC-VTZP/ozone_145.75/GMJ_IVECC2_A_1_.csv

>>> COPY /lustre/isaac/scratch/gjones39/ANO-RCC-VTZP/ozone_145.75/3189875/GMJ_e2_A_1_.csv /lustre/isaac/scratch/gjones39/ANO-RCC-VTZP/ozone_145.75/GMJ_e2_A_1_.csv

>>> END FOREACH

>>> EXPORT i = C

>>> IF (-FILE GMJ_e2_${i}_${j}_.csv)

>>> COPY /lustre/isaac/scratch/gjones39/ANO-RCC-VTZP/ozone_145.75/3189875/GMJ_RHS_C_1_.csv /lustre/isaac/scratch/gjones39/ANO-RCC-VTZP/ozone_145.75/GMJ_RHS_C_1_.csv

>>> COPY /lustre/isaac/scratch/gjones39/ANO-RCC-VTZP/ozone_145.75/3189875/GMJ_IVECW_C_1_.csv /lustre/isaac/scratch/gjones39/ANO-RCC-VTZP/ozone_145.75/GMJ_IVECW_C_1_.csv

>>> COPY /lustre/isaac/scratch/gjones39/ANO-RCC-VTZP/ozone_145.75/3189875/GMJ_IVECX_C_1_.csv /lustre/isaac/scratch/gjones39/ANO-RCC-VTZP/ozone_145.75/GMJ_IVECX_C_1_.csv

>>> COPY /lustre/isaac/scratch/gjones39/ANO-RCC-VTZP/ozone_145.75/3189875/GMJ_IVECC2_C_1_.csv /lustre/isaac/scratch/gjones39/ANO-RCC-VTZP/ozone_145.75/GMJ_IVECC2_C_1_.csv

>>> COPY /lustre/isaac/scratch/gjones39/ANO-RCC-VTZP/ozone_145.75/3189875/GMJ_e2_C_1_.csv /lustre/isaac/scratch/gjones39/ANO-RCC-VTZP/ozone_145.75/GMJ_e2_C_1_.csv

>>> END FOREACH

>>> EXPORT i = D

>>> IF (-FILE GMJ_e2_${i}_${j}_.csv)

>>> COPY /lustre/isaac/scratch/gjones39/ANO-RCC-VTZP/ozone_145.75/3189875/GMJ_RHS_D_1_.csv /lustre/isaac/scratch/gjones39/ANO-RCC-VTZP/ozone_145.75/GMJ_RHS_D_1_.csv

>>> COPY /lustre/isaac/scratch/gjones39/ANO-RCC-VTZP/ozone_145.75/3189875/GMJ_IVECW_D_1_.csv /lustre/isaac/scratch/gjones39/ANO-RCC-VTZP/ozone_145.75/GMJ_IVECW_D_1_.csv

>>> COPY /lustre/isaac/scratch/gjones39/ANO-RCC-VTZP/ozone_145.75/3189875/GMJ_IVECX_D_1_.csv /lustre/isaac/scratch/gjones39/ANO-RCC-VTZP/ozone_145.75/GMJ_IVECX_D_1_.csv

>>> COPY /lustre/isaac/scratch/gjones39/ANO-RCC-VTZP/ozone_145.75/3189875/GMJ_IVECC2_D_1_.csv /lustre/isaac/scratch/gjones39/ANO-RCC-VTZP/ozone_145.75/GMJ_IVECC2_D_1_.csv

>>> COPY /lustre/isaac/scratch/gjones39/ANO-RCC-VTZP/ozone_145.75/3189875/GMJ_e2_D_1_.csv /lustre/isaac/scratch/gjones39/ANO-RCC-VTZP/ozone_145.75/GMJ_e2_D_1_.csv

>>> END FOREACH

>>> END FOREACH

>>> EXPORT j = 2

>>> EXPORT i = A

>>> IF (-FILE GMJ_e2_${i}_${j}_.csv)

>>> COPY /lustre/isaac/scratch/gjones39/ANO-RCC-VTZP/ozone_145.75/3189875/GMJ_RHS_A_2_.csv /lustre/isaac/scratch/gjones39/ANO-RCC-VTZP/ozone_145.75/GMJ_RHS_A_2_.csv

>>> COPY /lustre/isaac/scratch/gjones39/ANO-RCC-VTZP/ozone_145.75/3189875/GMJ_IVECW_A_2_.csv /lustre/isaac/scratch/gjones39/ANO-RCC-VTZP/ozone_145.75/GMJ_IVECW_A_2_.csv

>>> COPY /lustre/isaac/scratch/gjones39/ANO-RCC-VTZP/ozone_145.75/3189875/GMJ_IVECX_A_2_.csv /lustre/isaac/scratch/gjones39/ANO-RCC-VTZP/ozone_145.75/GMJ_IVECX_A_2_.csv

>>> COPY /lustre/isaac/scratch/gjones39/ANO-RCC-VTZP/ozone_145.75/3189875/GMJ_IVECC2_A_2_.csv /lustre/isaac/scratch/gjones39/ANO-RCC-VTZP/ozone_145.75/GMJ_IVECC2_A_2_.csv

>>> COPY /lustre/isaac/scratch/gjones39/ANO-RCC-VTZP/ozone_145.75/3189875/GMJ_e2_A_2_.csv /lustre/isaac/scratch/gjones39/ANO-RCC-VTZP/ozone_145.75/GMJ_e2_A_2_.csv

>>> END FOREACH

>>> EXPORT i = C

>>> IF (-FILE GMJ_e2_${i}_${j}_.csv)

>>> COPY /lustre/isaac/scratch/gjones39/ANO-RCC-VTZP/ozone_145.75/3189875/GMJ_RHS_C_2_.csv /lustre/isaac/scratch/gjones39/ANO-RCC-VTZP/ozone_145.75/GMJ_RHS_C_2_.csv

>>> COPY /lustre/isaac/scratch/gjones39/ANO-RCC-VTZP/ozone_145.75/3189875/GMJ_IVECW_C_2_.csv /lustre/isaac/scratch/gjones39/ANO-RCC-VTZP/ozone_145.75/GMJ_IVECW_C_2_.csv

>>> COPY /lustre/isaac/scratch/gjones39/ANO-RCC-VTZP/ozone_145.75/3189875/GMJ_IVECX_C_2_.csv /lustre/isaac/scratch/gjones39/ANO-RCC-VTZP/ozone_145.75/GMJ_IVECX_C_2_.csv

>>> COPY /lustre/isaac/scratch/gjones39/ANO-RCC-VTZP/ozone_145.75/3189875/GMJ_IVECC2_C_2_.csv /lustre/isaac/scratch/gjones39/ANO-RCC-VTZP/ozone_145.75/GMJ_IVECC2_C_2_.csv

>>> COPY /lustre/isaac/scratch/gjones39/ANO-RCC-VTZP/ozone_145.75/3189875/GMJ_e2_C_2_.csv /lustre/isaac/scratch/gjones39/ANO-RCC-VTZP/ozone_145.75/GMJ_e2_C_2_.csv

>>> END FOREACH

>>> EXPORT i = D

>>> IF (-FILE GMJ_e2_${i}_${j}_.csv)

>>> COPY /lustre/isaac/scratch/gjones39/ANO-RCC-VTZP/ozone_145.75/3189875/GMJ_RHS_D_2_.csv /lustre/isaac/scratch/gjones39/ANO-RCC-VTZP/ozone_145.75/GMJ_RHS_D_2_.csv

>>> COPY /lustre/isaac/scratch/gjones39/ANO-RCC-VTZP/ozone_145.75/3189875/GMJ_IVECW_D_2_.csv /lustre/isaac/scratch/gjones39/ANO-RCC-VTZP/ozone_145.75/GMJ_IVECW_D_2_.csv

>>> COPY /lustre/isaac/scratch/gjones39/ANO-RCC-VTZP/ozone_145.75/3189875/GMJ_IVECX_D_2_.csv /lustre/isaac/scratch/gjones39/ANO-RCC-VTZP/ozone_145.75/GMJ_IVECX_D_2_.csv

>>> COPY /lustre/isaac/scratch/gjones39/ANO-RCC-VTZP/ozone_145.75/3189875/GMJ_IVECC2_D_2_.csv /lustre/isaac/scratch/gjones39/ANO-RCC-VTZP/ozone_145.75/GMJ_IVECC2_D_2_.csv

>>> COPY /lustre/isaac/scratch/gjones39/ANO-RCC-VTZP/ozone_145.75/3189875/GMJ_e2_D_2_.csv /lustre/isaac/scratch/gjones39/ANO-RCC-VTZP/ozone_145.75/GMJ_e2_D_2_.csv

>>> END FOREACH

>>> END FOREACH

>>> EXPORT j = 3

>>> EXPORT i = A

>>> IF (-FILE GMJ_e2_${i}_${j}_.csv)

>>> COPY /lustre/isaac/scratch/gjones39/ANO-RCC-VTZP/ozone_145.75/3189875/GMJ_RHS_A_3_.csv /lustre/isaac/scratch/gjones39/ANO-RCC-VTZP/ozone_145.75/GMJ_RHS_A_3_.csv

>>> COPY /lustre/isaac/scratch/gjones39/ANO-RCC-VTZP/ozone_145.75/3189875/GMJ_IVECW_A_3_.csv /lustre/isaac/scratch/gjones39/ANO-RCC-VTZP/ozone_145.75/GMJ_IVECW_A_3_.csv

>>> COPY /lustre/isaac/scratch/gjones39/ANO-RCC-VTZP/ozone_145.75/3189875/GMJ_IVECX_A_3_.csv /lustre/isaac/scratch/gjones39/ANO-RCC-VTZP/ozone_145.75/GMJ_IVECX_A_3_.csv

>>> COPY /lustre/isaac/scratch/gjones39/ANO-RCC-VTZP/ozone_145.75/3189875/GMJ_IVECC2_A_3_.csv /lustre/isaac/scratch/gjones39/ANO-RCC-VTZP/ozone_145.75/GMJ_IVECC2_A_3_.csv

>>> COPY /lustre/isaac/scratch/gjones39/ANO-RCC-VTZP/ozone_145.75/3189875/GMJ_e2_A_3_.csv /lustre/isaac/scratch/gjones39/ANO-RCC-VTZP/ozone_145.75/GMJ_e2_A_3_.csv

>>> END FOREACH

>>> EXPORT i = C

>>> IF (-FILE GMJ_e2_${i}_${j}_.csv)

>>> COPY /lustre/isaac/scratch/gjones39/ANO-RCC-VTZP/ozone_145.75/3189875/GMJ_RHS_C_3_.csv /lustre/isaac/scratch/gjones39/ANO-RCC-VTZP/ozone_145.75/GMJ_RHS_C_3_.csv

>>> COPY /lustre/isaac/scratch/gjones39/ANO-RCC-VTZP/ozone_145.75/3189875/GMJ_IVECW_C_3_.csv /lustre/isaac/scratch/gjones39/ANO-RCC-VTZP/ozone_145.75/GMJ_IVECW_C_3_.csv

>>> COPY /lustre/isaac/scratch/gjones39/ANO-RCC-VTZP/ozone_145.75/3189875/GMJ_IVECX_C_3_.csv /lustre/isaac/scratch/gjones39/ANO-RCC-VTZP/ozone_145.75/GMJ_IVECX_C_3_.csv

>>> COPY /lustre/isaac/scratch/gjones39/ANO-RCC-VTZP/ozone_145.75/3189875/GMJ_IVECC2_C_3_.csv /lustre/isaac/scratch/gjones39/ANO-RCC-VTZP/ozone_145.75/GMJ_IVECC2_C_3_.csv

>>> COPY /lustre/isaac/scratch/gjones39/ANO-RCC-VTZP/ozone_145.75/3189875/GMJ_e2_C_3_.csv /lustre/isaac/scratch/gjones39/ANO-RCC-VTZP/ozone_145.75/GMJ_e2_C_3_.csv

>>> END FOREACH

>>> EXPORT i = D

>>> IF (-FILE GMJ_e2_${i}_${j}_.csv)

>>> COPY /lustre/isaac/scratch/gjones39/ANO-RCC-VTZP/ozone_145.75/3189875/GMJ_RHS_D_3_.csv /lustre/isaac/scratch/gjones39/ANO-RCC-VTZP/ozone_145.75/GMJ_RHS_D_3_.csv

>>> COPY /lustre/isaac/scratch/gjones39/ANO-RCC-VTZP/ozone_145.75/3189875/GMJ_IVECW_D_3_.csv /lustre/isaac/scratch/gjones39/ANO-RCC-VTZP/ozone_145.75/GMJ_IVECW_D_3_.csv

>>> COPY /lustre/isaac/scratch/gjones39/ANO-RCC-VTZP/ozone_145.75/3189875/GMJ_IVECX_D_3_.csv /lustre/isaac/scratch/gjones39/ANO-RCC-VTZP/ozone_145.75/GMJ_IVECX_D_3_.csv

>>> COPY /lustre/isaac/scratch/gjones39/ANO-RCC-VTZP/ozone_145.75/3189875/GMJ_IVECC2_D_3_.csv /lustre/isaac/scratch/gjones39/ANO-RCC-VTZP/ozone_145.75/GMJ_IVECC2_D_3_.csv

>>> COPY /lustre/isaac/scratch/gjones39/ANO-RCC-VTZP/ozone_145.75/3189875/GMJ_e2_D_3_.csv /lustre/isaac/scratch/gjones39/ANO-RCC-VTZP/ozone_145.75/GMJ_e2_D_3_.csv

>>> END FOREACH

>>> END FOREACH

    Timing: Wall=72.76 User=43.56 System=21.03
*******************************************************************************************
*** WorkDir at /lustre/isaac/scratch/gjones39/ANO-RCC-VTZP/ozone_145.75/3189875 cleaned ***
*******************************************************************************************
