   This run of MOLCAS is using the pymolcas driver

                             OPE
                             OPE          NMOL  CASOP  ENMOLC A   SO
                 OPE        NMOLC        AS  OP EN  MO LC     AS  OP
                OPENM       OL CA        SO  PE NM  OL CA     SOP EN
                OP EN      MO   LC       AS  OP ENMOL  CASO   PENMOL
                OP  EN     MO   LC       AS  OP EN     MO     LC ASO
               OP   E  NMOL  C  AS       OP  EN MO     LC     AS  OP
               OP  E   NMO   LC AS        OPEN  MO     LCASOP EN   M
               O  PEN   MO  LCA  SO
            OPE   NMO   L   CAS    OP
        OPENMOL  CASOP     ENMOL   CASOPE
     OPENMOLCA   SOPENMOLCASOPEN   MOLCASOPE
    OPENMOLCAS   OP           EN   MOL    CAS
    OPENMOLCAS       OP  ENM        O     LCA
    OPENMOLCAS    OPEN  MOLCASO     P  E  NMO
    OPENMOLCAS     OP               E  N  MOL
    OPENMOLCA   SO           PENM   O  L  CAS    OPEN    MO    LCAS
    OPENMOLCA   SOP           ENM   O  L  CAS   OP  EN  MOLC  AS   O
    OPENMOLCA   SOPE           NM      O  LCA   S      OP  EN MO
    OPENMOLC                AS         O  PEN   M      OL  CA  SOPE
    OPENMO        LCASOPE  NMOL        C  ASO   P      ENMOLC     AS
    OPE     NMO      LCA  SO     P     E   NM   OL  CA SO  PE N   MO
          OPENMOLCA            SOPE   NMO        LCAS  O    P  ENMO
     OPENMOLCASOPENMOLCASOPENMOLCASOPENMOLCA
        OPENMOLCASOPENMOLCASOPENMOLCASOPE
            OPENMOLCASOPENMOLCASOPENM
               OPENMOLCASOPENMOLCA        version: ea724fe96-dirty
                   OPENMOLCASO
                       OPE                tag:

 OpenMolcas is free software; you can redistribute it and/or modify it
 under the terms of the GNU Lesser General Public License version 2.1.
 OpenMolcas is distributed in the hope that it will be useful, but it
 is provided "as is" and without any express or implied warranties.
 For more details see the full text of the license in the file
 LICENSE or in <http://www.gnu.org/licenses/>.

                 Copyright (C) The OpenMolcas Authors
           For the author list and the recommended citation,
                   consult the file CONTRIBUTORS.md

           *************************************************
           * pymolcas version py2.28                       *
           *   build c4a6d18ded8cb6cad61d2372a9abd97c      *
           *   (after the EMIL interpreter by V. Veryazov) *
           *************************************************

configuration info
------------------
C Compiler ID: Intel
C flags: -std=gnu99
Fortran Compiler ID: Intel
Fortran flags: -fpp -i8 -r8 -heap-arrays
Definitions: _MOLCAS_;_I8_;_LINUX_
Parallel: OFF (GA=OFF)


   --------------------------------------------------------------------------------
  |
  |              Project: H6_2.22
  |       Submitted from: /home/grierjones/DDCASPT2/hydrogen_comps/H6_chain/H6_2.22
  |         Scratch area: /tmp/H6_2.22
  |      Save outputs to: /home/grierjones/DDCASPT2/hydrogen_comps/H6_chain/H6_2.22
  |               Molcas: /home/grierjones/Test/build
  |
  | Scratch area is empty
  |
  |       MOLCAS_DRIVER = /usr/local/pymolcas
  | MOLCAS_KEEP_WORKDIR = NO
  |  MOLCAS_NEW_WORKDIR = YES
  |       MOLCAS_NPROCS = 1
  |        MOLCAS_PRINT = NORMAL
  |       MOLCAS_SOURCE = /home/grierjones/Test/build
  |    MOLCAS_STRUCTURE = 0
  |
   --------------------------------------------------------------------------------

++ ---------   Input file   ---------

&GATEWAY
coord=H6_2.22.xyz
Basis = ANO-RCC-VDZP
Group = nosymm
Expert
End of Input

&SEWARD
End of Input

&SCF

>>> COPY $WorkDir/H6_2.22.scf.h5 $CurrDir/

&RASSCF
Title= RASSCF
FileOrb
/home/grierjones/DDCASPT2/hydrogen_comps/H6_chain/H6_2.20/H6_2.20.RasOrb
NACTEL
6 0 0
Inactive
0
RAS2
6
Symmetry
1
Spin
1
orblisting
all
ITERation
300 200

>>> COPY $WorkDir/H6_2.22.rasscf.h5 $CurrDir/

>>> COPY $WorkDir/GMJ_Fock_MO.csv $CurrDir/H6_2.22.GMJ_Fock_MO.csv

>>> COPY $WorkDir/GMJ_PT2_Fock_MO.csv $CurrDir/H6_2.22.GMJ_PT2_Fock_MO.csv

&MOTRA
Frozen=0
LUMORB

>>> COPY $WorkDir/GMJ_one_int_indx.csv $CurrDir/H6_2.22.GMJ_one_int_indx.csv

>>> COPY $WorkDir/GMJ_one_int.csv $CurrDir/H6_2.22.GMJ_one_int.csv

>>> COPY $WorkDir/GMJ_two_int_indx.csv $CurrDir/H6_2.22.GMJ_two_int_indx.csv

>>> COPY $WorkDir/GMJ_two_int.csv $CurrDir/H6_2.22.GMJ_two_int.csv

&CASPT2
Frozen
0
MAXITER
50

>>> FOREACH i IN (B,E,F,G,H)

  >>> FOREACH j IN (P,M)

    >>> IF (-FILE GMJ_e2_${i}_${j}.csv)

      >>> COPY $WorkDir/GMJ_RHS_${i}_${j}.csv $CurrDir/GMJ_RHS_${i}_${j}.csv

      >>> COPY $WorkDir/GMJ_IVECW_${i}_${j}.csv $CurrDir/GMJ_IVECW_${i}_${j}.csv

      >>> COPY $WorkDir/GMJ_IVECX_${i}_${j}.csv $CurrDir/GMJ_IVECX_${i}_${j}.csv

      >>> COPY $WorkDir/GMJ_IVECC2_${i}_${j}.csv $CurrDir/GMJ_IVECC2_${i}_${j}.csv

      >>> COPY $WorkDir/GMJ_e2_${i}_${j}.csv $CurrDir/GMJ_e2_${i}_${j}.csv

    >>> END IF

  >>> END FOREACH

>>> END FOREACH

>>> FOREACH i IN (A,C,D)

  >>> IF (-FILE GMJ_e2_$i.csv)

    >>> COPY $WorkDir/GMJ_RHS_$i.csv $CurrDir/GMJ_RHS_$i.csv

    >>> COPY $WorkDir/GMJ_IVECW_$i.csv $CurrDir/GMJ_IVECW_$i.csv

    >>> COPY $WorkDir/GMJ_IVECX_$i.csv $CurrDir/GMJ_IVECX_$i.csv

    >>> COPY $WorkDir/GMJ_IVECC2_$i.csv $CurrDir/GMJ_IVECC2_$i.csv

    >>> COPY $WorkDir/GMJ_e2_$i.csv $CurrDir/GMJ_e2_$i.csv

  >>> END IF

>>> END FOREACH

-- ----------------------------------

--- Start Module: gateway at Mon Nov 18 14:11:58 2024 ---
 
()()()()()()()()()()()()()()()()()()()()()()()()()()()()()()()()()()()()()()()()()()()()()()()()()()

                                              &GATEWAY

                                   only a single process is used
                       available to each process: 2.0 GB of memory, 1 thread?
()()()()()()()()()()()()()()()()()()()()()()()()()()()()()()()()()()()()()()()()()()()()()()()()()()
 
 ###############################################################################
 ###############################################################################
 ###                                                                         ###
 ###                                                                         ###
 ###                                                                         ###
 ###    WARNING: EXPERT option is ON!                                        ###
 ###                                                                         ###
 ###                                                                         ###
 ###############################################################################
 ###############################################################################
 
++    Symmetry information:
      ---------------------
 
                    Character Table for C1 
 
                             E  
                    a        1  x, y, xy, Rz, z, xz, Ry, yz, Rx, I
--
 
 
++    Basis set information:
      ----------------------
 
 
      Basis set label: H.ANO-RCC...2S1P.
 
      Electronic valence basis set:
      ------------------
      Associated Effective Charge   1.000000 au
      Associated Actual Charge      1.000000 au
      Nuclear Model: Point charge
 
      Shell  nPrim  nBasis  Cartesian Spherical Contaminant
         s       8       2        X                  
         p       4       1        X                  
--
 
 
++    Molecular structure info:
      -------------------------
 
                    ************************************************ 
                    **** Cartesian Coordinates / Bohr, Angstrom **** 
                    ************************************************ 
 
     Center  Label                x              y              z                     x              y              z
        1      H1               0.000000       0.000000       0.000000              0.000000       0.000000       0.000000
        2      H2               0.000000       0.000000       4.203208              0.000000       0.000000       2.224242
        3      H3               0.000000       0.000000       8.406418              0.000000       0.000000       4.448485
        4      H4               0.000000       0.000000      12.609627              0.000000       0.000000       6.672727
        5      H5               0.000000       0.000000      16.812837              0.000000       0.000000       8.896970
        6      H6               0.000000       0.000000      21.016045              0.000000       0.000000      11.121212
 
                    *************************************** 
                    *    InterNuclear Distances / Bohr    * 
                    *************************************** 
 
               1 H1            2 H2            3 H3            4 H4            5 H5            6 H6    
    1 H1       0.000000
    2 H2       4.203208        0.000000
    3 H3       8.406418        4.203210        0.000000
    4 H4      12.609627        8.406418        4.203208        0.000000
    5 H5      16.812837       12.609628        8.406418        4.203210        0.000000
    6 H6      21.016045       16.812837       12.609627        8.406418        4.203208        0.000000
 
                    ******************************************* 
                    *    InterNuclear Distances / Angstrom    * 
                    ******************************************* 
 
               1 H1            2 H2            3 H3            4 H4            5 H5            6 H6    
    1 H1       0.000000
    2 H2       2.224242        0.000000
    3 H3       4.448485        2.224243        0.000000
    4 H4       6.672727        4.448485        2.224242        0.000000
    5 H5       8.896970        6.672728        4.448485        2.224243        0.000000
    6 H6      11.121212        8.896970        6.672727        4.448485        2.224242        0.000000
--
 
 
            Nuclear Potential Energy              2.06984709 au
 
 ###############################################################################
 ###############################################################################
 ###                                                                         ###
 ###                                                                         ###
 ###    There were warnings during the execution                             ###
 ###    Please, check the output with care!                                  ###
 ###                                                                         ###
 ###                                                                         ###
 ###############################################################################
 ###############################################################################
--- Stop Module: gateway at Mon Nov 18 14:11:58 2024 /rc=_RC_ALL_IS_WELL_ ---
*** files: xmldump
    saved to directory /home/grierjones/DDCASPT2/hydrogen_comps/H6_chain/H6_2.22

--- Start Module: seward at Mon Nov 18 14:11:58 2024 ---
 
()()()()()()()()()()()()()()()()()()()()()()()()()()()()()()()()()()()()()()()()()()()()()()()()()()

                                              &SEWARD

                                   only a single process is used
                       available to each process: 2.0 GB of memory, 1 thread?
()()()()()()()()()()()()()()()()()()()()()()()()()()()()()()()()()()()()()()()()()()()()()()()()()()
 
 ###############################################################################
 ###############################################################################
 ###                                                                         ###
 ###                                                                         ###
 ###                                                                         ###
 ###    WARNING: EXPERT option is ON!                                        ###
 ###                                                                         ###
 ###                                                                         ###
 ###############################################################################
 ###############################################################################
               SEWARD will generate:
                  Multipole Moment integrals up to order  2
                  Kinetic Energy integrals
                  Nuclear Attraction integrals (point charge)
                  One-Electron Hamiltonian integrals
                  Velocity integrals
                  Relativistic Douglas-Kroll-Hess integrals:
                    - Parametrization         : EXP
                    - DKH order of Hamiltonian: 2
                    - DKH order of Properties : 0
                         - multipole moment operators
                         - electric potential operators
                         - contact operators
                  Atomic mean-field integrals
                  Two-Electron Repulsion integrals
 
                   Integrals are discarded if absolute value <: 0.10E-13
                   Integral cutoff threshold is set to       <: 0.10E-15
 
            Nuclear Potential Energy              2.06984709 au
 
 
      Basis set specifications :
      Symmetry species         a  
      Basis functions           30
 
 
  Input file to MOLDEN was generated!
 
 ###############################################################################
 ###############################################################################
 ###                                                                         ###
 ###                                                                         ###
 ###    There were warnings during the execution                             ###
 ###    Please, check the output with care!                                  ###
 ###                                                                         ###
 ###                                                                         ###
 ###############################################################################
 ###############################################################################
--- Stop Module: seward at Mon Nov 18 14:11:59 2024 /rc=_RC_ALL_IS_WELL_ ---
*** files: H6_2.22.GssOrb H6_2.22.guessorb.h5 H6_2.22.guessorb.molden xmldump
    saved to directory /home/grierjones/DDCASPT2/hydrogen_comps/H6_chain/H6_2.22

*** symbolic link created: INPORB -> H6_2.22.GssOrb
--- Start Module: scf at Mon Nov 18 14:11:59 2024 ---
 
()()()()()()()()()()()()()()()()()()()()()()()()()()()()()()()()()()()()()()()()()()()()()()()()()()

                                                &SCF

                                   only a single process is used
                       available to each process: 2.0 GB of memory, 1 thread?
()()()()()()()()()()()()()()()()()()()()()()()()()()()()()()()()()()()()()()()()()()()()()()()()()()
 
++    Input section:
      --------------
 
      Header of the integral files:
      
       Integrals generated by seward 4.2.0  , Mon Nov 18 14:11:58 2024
 
 
      Cartesian coordinates in Angstrom:
      -----------------------------------------------------
      No.  Label        X            Y            Z        
      -----------------------------------------------------
       1   H1         0.00000000   0.00000000   0.00000000
       2   H2         0.00000000   0.00000000   2.22424200
       3   H3         0.00000000   0.00000000   4.44848500
       4   H4         0.00000000   0.00000000   6.67272700
       5   H5         0.00000000   0.00000000   8.89697000
       6   H6         0.00000000   0.00000000  11.12121200
      -----------------------------------------------------
      Nuclear repulsion energy =    2.06984709
--
 
++    Orbital specifications:
      -----------------------
 
      Symmetry species               1
                                     a
      Frozen orbitals                0
      Occupied orbitals              3
      Secondary orbitals            27
      Deleted orbitals               0
      Total number of orbitals      30
      Number of basis functions     30
--
 
      Molecular charge                           0.000
 
++    Optimization specifications:
      ----------------------------
 
      SCF Algorithm: Conventional
      Minimized density differences are used
      Number of density matrices in core                5
      Maximum number of NDDO SCF iterations           400
      Maximum number of HF SCF iterations             400
      Threshold for SCF energy change            0.10E-08
      Threshold for density matrix               0.10E-03
      Threshold for Fock matrix                  0.15E-03
      Threshold for linear dependence            0.10E-08
      Threshold at which DIIS is turned on       0.15E+00
      Threshold at which QNR/C2DIIS is turned on 0.75E-01
      Threshold for Norm(delta) (QNR/C2DIIS)     0.20E-04
      DIIS extrapolation of the SCF procedure
      All orbitals punched on: SCFORB
--
 
      Input vectors read from INPORB
      Orbital file label: *Guess orbitals
 
 
++ Convergence information
                                   SCF        iterations: Energy and convergence statistics
 
Iter     Tot. SCF        One-elec.       Two-elec.     Energy      Max Dij or  Max Fij      DNorm      TNorm      AccCon     Time
         Energy          Energy          Energy        Change      Delta Norm                                                in Sec.
   1    -2.532179781    -7.292539555     2.690512683   0.00E+00    0.35E+00*   0.11E+00*    0.37E+01   0.64E+01   None         0.
   2    -2.679735940    -7.272138476     2.522555444  -0.15E+00*   0.11E+00*   0.22E-01*    0.11E+01   0.62E+01   EDIIS        0.
   3    -2.687015383    -7.227153082     2.470290607  -0.73E-02*   0.61E-01*   0.83E-02*    0.21E+00   0.61E+01   EDIIS        0.
   4    -2.688113931    -7.229696317     2.471735295  -0.11E-02*   0.36E-01*   0.54E-02*    0.11E+00   0.61E+01   c2DIIS       0.
   5    -2.688466466    -7.222634700     2.464321143  -0.35E-03*   0.96E-02*   0.23E-02*    0.17E-01   0.61E+01   QNRc2DIIS    0.
   6    -2.688528610    -7.226013325     2.467637623  -0.62E-04*   0.70E-02*   0.11E-02*    0.34E-02   0.61E+01   QNRc2DIIS    0.
   7    -2.688551674    -7.225122325     2.466723559  -0.23E-04*   0.24E-02*   0.35E-03*    0.50E-03   0.61E+01   QNRc2DIIS    0.
   8    -2.688553531    -7.224577420     2.466176798  -0.19E-05*   0.25E-04*   0.50E-05     0.24E-03   0.61E+01   QNRc2DIIS    0.
   9    -2.688553531    -7.224567662     2.466167039  -0.39E-09    0.27E-05    0.45E-06     0.26E-04   0.61E+01   QNRc2DIIS    0.
 
       Convergence after  9 Macro Iterations
--
 
 *****************************************************************************************************************************
 *                                                                                                                           *
 *                                             SCF/KS-DFT Program, Final results                                             *
 *                                                                                                                           *
 *                                                                                                                           *
 *                                                                                                                           *
 *                                                       Final Results                                                       *
 *                                                                                                                           *
 *****************************************************************************************************************************
 
::    Total SCF energy                                 -2.6885535311
      One-electron energy                              -7.2245676615
      Two-electron energy                               2.4661670388
      Nuclear repulsion energy                          2.0698470917
      Kinetic energy (interpolated)                     2.0023553808
      Virial theorem                                    1.3426954860
      Total spin, S(S+1)                                0.0000000000
      Total spin, S                                     0.0000000000
      Max non-diagonal density matrix element           0.0000036843
      Max non-diagonal Fock matrix element              0.0000002606
 
 
      All orbitals with orbital energies smaller than  E(LUMO)+0.5 are printed
 
++    Molecular orbitals:
      -------------------
 
      Title: SCF orbitals

      Molecular orbitals for symmetry species 1: a  
 
          Orbital            1         2         3         4         5         6         7         8    
          Energy           -0.4153   -0.3859   -0.3449   -0.1301   -0.0700   -0.0145    0.3240    0.3505
          Occ. No.          2.0000    2.0000    2.0000    0.0000    0.0000    0.0000    0.0000    0.0000
 
        1 H1     1s         0.2288   -0.4003    0.3898   -0.4882    0.5752   -0.3695   -0.1473    0.1806
        2 H1     2s         0.0346   -0.0675    0.0763   -0.1622    0.2138   -0.1461    0.3130   -0.5213
        3 H1     2px       -0.0000    0.0000   -0.0000   -0.0000    0.0000   -0.0000   -0.0000   -0.0000
        4 H1     2py        0.0000   -0.0000   -0.0000   -0.0000   -0.0000   -0.0000    0.0000   -0.0000
        5 H1     2pz        0.0105   -0.0149    0.0108    0.0046   -0.0167    0.0204   -0.0285    0.0371
        6 H2     1s         0.3153   -0.4511    0.3154    0.2824   -0.6394    0.5872   -0.2182    0.1968
        7 H2     2s         0.0438   -0.0950    0.0968    0.0879   -0.2416    0.2264    0.2520   -0.2597
        8 H2     2px       -0.0000    0.0000   -0.0000   -0.0000    0.0000   -0.0000   -0.0000    0.0000
        9 H2     2py        0.0000   -0.0000    0.0000    0.0000   -0.0000   -0.0000    0.0000   -0.0000
       10 H2     2pz       -0.0012    0.0099   -0.0165    0.0232   -0.0133   -0.0084    0.0064   -0.0212
       11 H3     1s         0.4246   -0.0862   -0.4485    0.5066    0.2107   -0.7369   -0.2254    0.0765
       12 H3     2s         0.0653    0.0025   -0.1176    0.1710    0.0850   -0.2801    0.3031   -0.1248
       13 H3     2px       -0.0000   -0.0000    0.0000    0.0000    0.0000   -0.0000   -0.0000    0.0000
       14 H3     2py        0.0000    0.0000    0.0000    0.0000    0.0000   -0.0000    0.0000    0.0000
       15 H3     2pz        0.0071    0.0082   -0.0145   -0.0193    0.0213    0.0102   -0.0067   -0.0130
       16 H4     1s         0.4246    0.0862   -0.4485   -0.5066    0.2107    0.7369   -0.2254   -0.0765
       17 H4     2s         0.0653   -0.0025   -0.1176   -0.1710    0.0850    0.2801    0.3031    0.1248
       18 H4     2px        0.0000   -0.0000    0.0000   -0.0000   -0.0000   -0.0000   -0.0000    0.0000
       19 H4     2py       -0.0000    0.0000   -0.0000    0.0000   -0.0000    0.0000   -0.0000    0.0000
       20 H4     2pz       -0.0071    0.0082    0.0145   -0.0193   -0.0213    0.0102    0.0067   -0.0130
       21 H5     1s         0.3153    0.4511    0.3154   -0.2824   -0.6394   -0.5872   -0.2182   -0.1968
       22 H5     2s         0.0438    0.0950    0.0968   -0.0879   -0.2416   -0.2264    0.2520    0.2597
       23 H5     2px        0.0000    0.0000   -0.0000   -0.0000   -0.0000    0.0000    0.0000    0.0000
       24 H5     2py       -0.0000   -0.0000   -0.0000    0.0000    0.0000    0.0000   -0.0000   -0.0000
       25 H5     2pz        0.0012    0.0099    0.0165    0.0232    0.0133   -0.0084   -0.0064   -0.0212
       26 H6     1s         0.2288    0.4003    0.3898    0.4882    0.5752    0.3695   -0.1473   -0.1806
       27 H6     2s         0.0346    0.0675    0.0763    0.1622    0.2138    0.1461    0.3130    0.5213
       28 H6     2px       -0.0000    0.0000   -0.0000    0.0000    0.0000   -0.0000   -0.0000    0.0000
       29 H6     2py        0.0000   -0.0000    0.0000    0.0000   -0.0000   -0.0000    0.0000   -0.0000
       30 H6     2pz       -0.0105   -0.0149   -0.0108    0.0046    0.0167    0.0204    0.0285    0.0371
--
 
 
++    Molecular charges:
      ------------------
 
      Mulliken charges per centre and basis function type
      ---------------------------------------------------
 
                H1      H2      H3      H4      H5      H6    
      1s       0.8823  0.9507  0.9258  0.9258  0.9507  0.8823
      2s       0.0709  0.0802  0.0678  0.0678  0.0802  0.0709
      2px      0.0000  0.0000  0.0000  0.0000  0.0000  0.0000
      2pz      0.0065  0.0080  0.0077  0.0077  0.0080  0.0065
      2py      0.0000  0.0000  0.0000  0.0000  0.0000  0.0000
      Total    0.9598  1.0389  1.0013  1.0013  1.0389  0.9598
 
      N-E      0.0402 -0.0389 -0.0013 -0.0013 -0.0389  0.0402
 
      Total electronic charge=    6.000000
 
      Total            charge=   -0.000000
--
 
 
  Input file to MOLDEN was generated!
 
 
++    Static properties:
      ------------------
 
 
      LoProp Charges per center
 

                   H1       H2       H3       H4       H5       H6    
      Nuclear      1.0000   1.0000   1.0000   1.0000   1.0000   1.0000
      Electronic  -0.9784  -1.0187  -1.0028  -1.0028  -1.0187  -0.9784
 
      Total        0.0216  -0.0187  -0.0028  -0.0028  -0.0187   0.0216
--
 
 
++    Natural Bond Order analysis
      ---------------------------
      Based on LoProp computed density
      -------------------------------------------------------------------------------------
      Atom A       Atom B       Bond Order
      -------------------------------------------------------------------------------------
      NBO located      0.961 non-bonded electrons on atom H1        
      NBO located      1.012 non-bonded electrons on atom H3        
      NBO located      1.012 non-bonded electrons on atom H4        
      NBO located      0.961 non-bonded electrons on atom H6        
      The remaining    2.054 electrons are to be considered as diffuse
--
 
 
++    Molecular properties:
      ---------------------
 
      Charge (e):
                      =   -0.0000
      Dipole Moment (Debye):
      Origin of the operator (Ang)=    0.0000    0.0000    0.0000
                   X=  5.5396E-14               Y= -5.8061E-15               Z= -2.9799E-12           Total=  2.9805E-12
      Quadrupole Moment (Debye*Ang):
      Origin of the operator (Ang)=    0.0000    0.0000    5.5606
                  XX= -1.3385E+01              XY=  4.0119E-29              XZ= -3.0371E-13              YY= -1.3385E+01
                  YZ=  6.3294E-14              ZZ= -1.2307E+00
      In traceless form (Debye*Ang)
                  XX= -6.0771E+00              XY=  6.0178E-29              XZ= -4.5557E-13              YY= -6.0771E+00
                  YZ=  9.4942E-14              ZZ=  1.2154E+01
--
 
 
  Input file to MOLDEN was generated!
 
 ###############################################################################
 ###############################################################################
 ###                                                                         ###
 ###                                                                         ###
 ###    RunFile label nBas                                                   ###
 ###    was used       78 times                                              ###
 ###                                                                         ###
 ###                                                                         ###
 ###############################################################################
 ###############################################################################
--- Stop Module: scf at Mon Nov 18 14:11:59 2024 /rc=_RC_ALL_IS_WELL_ ---
*** files: H6_2.22.LprOrb H6_2.22.LoProp.molden H6_2.22.scf.molden H6_2.22.ScfOrb H6_2.22.scf.h5 xmldump
    saved to directory /home/grierjones/DDCASPT2/hydrogen_comps/H6_chain/H6_2.22

>>> COPY /tmp/H6_2.22/H6_2.22.scf.h5 /home/grierjones/DDCASPT2/hydrogen_comps/H6_chain/H6_2.22/

*** symbolic link created: INPORB -> H6_2.22.ScfOrb
--- Start Module: rasscf at Mon Nov 18 14:11:59 2024 ---
 
()()()()()()()()()()()()()()()()()()()()()()()()()()()()()()()()()()()()()()()()()()()()()()()()()()

                                              &RASSCF

                                   only a single process is used
                       available to each process: 2.0 GB of memory, 1 thread?
()()()()()()()()()()()()()()()()()()()()()()()()()()()()()()()()()()()()()()()()()()()()()()()()()()
 
 
 *************** WARNING ****************
 ###############################################################################
 ###############################################################################
 ###                                                                         ###
 ###                                                                         ###
 ###    Too many macro-iterations.                                           ###
 ###                                                                         ###
 ###                                                                         ###
 ###############################################################################
 ###############################################################################
 Too many macro-iterations requested.
 Reset to maximum, new MAXIT=     200
 ****************************************
 
 *************** WARNING ****************
 ###############################################################################
 ###############################################################################
 ###                                                                         ###
 ###                                                                         ###
 ###    Too many SX-iterations.                                              ###
 ###                                                                         ###
 ###                                                                         ###
 ###############################################################################
 ###############################################################################
 Too many SX-iterations requested.
 Reset to maximum, new ITMAX=     100
 ****************************************
 
      Header of the ONEINT file:
      --------------------------
      
      Integrals generated by seward 4.2.0  , Mon Nov 18 14:11:58 2024
 
 
      OrdInt status: non-squared
 
 
      Cartesian coordinates in Angstrom:
      -----------------------------------------------------
      No.  Label        X            Y            Z        
      -----------------------------------------------------
       1   H1         0.00000000   0.00000000   0.00000000
       2   H2         0.00000000   0.00000000   2.22424200
       3   H3         0.00000000   0.00000000   4.44848500
       4   H4         0.00000000   0.00000000   6.67272700
       5   H5         0.00000000   0.00000000   8.89697000
       6   H6         0.00000000   0.00000000  11.12121200
      -----------------------------------------------------
      Nuclear repulsion energy =    2.06984709
 
++    Wave function specifications:
      -----------------------------
 
      Number of closed shell electrons           0
      Number of electrons in active shells       6
      Max number of holes in RAS1 space          0
      Max nr of electrons in RAS3 space          0
      Number of inactive orbitals                0
      Number of active orbitals                  6
      Number of secondary orbitals              24
      Spin quantum number                      0.0
      State symmetry                             1
--
 
++    Orbital specifications:
      -----------------------
 
      Symmetry species                           1
                                                 a
      Frozen orbitals                            0
      Inactive orbitals                          0
      Active orbitals                            6
      RAS1 orbitals                              0
      RAS2 orbitals                              6
      RAS3 orbitals                              0
      Secondary orbitals                        24
      Deleted orbitals                           0
      Number of basis functions                 30
--
 
++    CI expansion specifications:
      ----------------------------
 
      Number of CSFs                           175
      Number of determinants                   210
      Number of root(s) required                 1
      Root chosen for geometry opt.              1
      CI root used                               1
         
      highest root included in the CI            1
      max. size of the explicit Hamiltonian    175
--
 
++    Optimization specifications:
      ----------------------------
 
      RASSCF algorithm: Conventional
      Maximum number of macro iterations       200
      Maximum number of SX iterations          100
      Threshold for RASSCF energy            0.100E-07
      Threshold for max MO rotation          0.100E+00
      Threshold for max BLB element          0.100E-03
      Level shift parameter                  0.500E+00
      Make Quasi-Newton update
--
 
      The MO-coefficients are taken from the file:
      /home/grierjones/DDCASPT2/hydrogen_comps/H6_chain/H6_2.20/H6_2.20.RasOrb                                                        
      Title: RASSCF average (pseudo-natural) orbitals                                      
 
      Total molecular charge    0.00
 
      ************************************************************************************************************************
      *                                                                                                                      *
      *                                            Wave function control section                                             *
      *                                                                                                                      *
      ************************************************************************************************************************
 
 
                                         RASSCF iterations: Energy and convergence statistics
                                         ----------------------------------------------------
 
      Iter CI   SX   CI       RASSCF       Energy    max ROT     max BLB   max BLB  Level Ln srch  Step   QN   Walltime
          iter iter root      energy       change     param      element    value   shift minimum  type update hh:mm:ss
 Nr of preliminary CI iterations:   1
        1   1    4    1    -3.01827778    0.00E+00   0.88E-03    3  11 1  0.90E-03*  0.01   0.00    SX    NO    0:00:00
        2   1    4    1    -3.01828094   -0.32E-05*  0.24E-03    1   7 1  0.20E-03*  0.01   0.00    SX    NO    0:00:00
        3   1    3    1    -3.01828104   -0.93E-07*  0.53E-04    1   7 1 -0.41E-04   0.01   0.00    SX    NO    0:00:00
        4   1    3    1    -3.01828104   -0.51E-08  -0.18E-04    3   9 1  0.13E-04   0.01   0.00    SX    NO    0:00:00
      Convergence after  4 iterations
 
  Dmat in MO in SXCTL bf call to SXHAM                                                                                    
  mat. size =     6x    6
 
        1.5101138778448748
       -0.0000000000000413      1.4274755337543790
        0.0001965921493100      0.0000000000001001      1.2874079122794908
       -0.0000000000002139      0.0003888441430972      0.0000000000000667      0.7200031899277223
       -0.0000000000000057     -0.0000101122482967     -0.0000000000003460      0.0001229376203720      0.4826249522324662
       -0.0003562954105141      0.0000000000000595     -0.0000811257218823      0.0000000000001131      0.0000000000000191
        0.5723745339610663
        5   1    3    1    -3.01828104   -0.36E-09  -0.18E-04    3   9 1 -0.41E-05   0.01   0.00    SX    NO    0:00:00
 
      ************************************************************************************************************************
                                                      Wave function printout:
                       occupation of active orbitals, and spin coupling of open shells (u,d: Spin up or down)
      ************************************************************************************************************************
 
      Note: transformation to natural orbitals
      has been made, which may change the order of the CSFs.
 
      printout of CI-coefficients larger than  0.05 for root  1
      energy=      -3.018281
      conf/sym  111111     Coeff  Weight
             1  222000   0.57028 0.32522
            11  220200  -0.29181 0.08515
            13  220020  -0.05731 0.00328
            16  220002  -0.07583 0.00575
            20  2udu0d  -0.29871 0.08923
            21  2ud0ud   0.09662 0.00934
            23  u2d200   0.05031 0.00253
            24  u2dud0   0.28615 0.08188
            28  u2d002  -0.11041 0.01219
            29  202200  -0.08068 0.00651
            30  202ud0   0.11070 0.01225
            31  202020  -0.06720 0.00452
            34  202002  -0.19421 0.03772
            38  ud2u0d  -0.10303 0.01062
            39  ud20ud   0.21647 0.04686
            41  022200  -0.06471 0.00419
            42  022ud0  -0.05291 0.00280
            43  022020  -0.15544 0.02416
            46  022002  -0.07153 0.00512
            48  2uud0d   0.08601 0.00740
            50  u2udd0  -0.09752 0.00951
           120  200220   0.05225 0.00273
           123  200202   0.16621 0.02763
           127  ud02ud  -0.17550 0.03080
           128  ud0u2d  -0.05542 0.00307
           132  020220   0.12497 0.01562
           135  020202   0.05534 0.00306
           136  020ud2   0.06853 0.00470
           138  u0d220   0.06844 0.00468
           142  u0dud2   0.16906 0.02858
           145  0ud2ud  -0.05895 0.00347
           146  0udu2d  -0.13835 0.01914
           155  002022   0.09779 0.00956
           162  u0udd2  -0.05541 0.00307
           175  000222  -0.12815 0.01642
 
      Natural orbitals and occupation numbers for root  1
      sym 1:   1.510114   1.427476   1.287408   0.720003   0.482625   0.572374
 
      ************************************************************************************************************************
      *                                                                                                                      *
      *                                                    Final results                                                     *
      *                                                                                                                      *
      ************************************************************************************************************************
 
 
++    Wave function specifications:
      -----------------------------
 
      Number of closed shell electrons           0
      Number of electrons in active shells       6
      Max number of holes in RAS1 space          0
      Max nr of electrons in RAS3 space          0
      Number of inactive orbitals                0
      Number of active orbitals                  6
      Number of secondary orbitals              24
      Spin quantum number                      0.0
      State symmetry                             1
--
 
++    Orbital specifications:
      -----------------------
 
      Symmetry species                           1
                                                 a
      Frozen orbitals                            0
      Inactive orbitals                          0
      Active orbitals                            6
      RAS1 orbitals                              0
      RAS2 orbitals                              6
      RAS3 orbitals                              0
      Secondary orbitals                        24
      Deleted orbitals                           0
      Number of basis functions                 30
--
 
++    CI expansion specifications:
      ----------------------------
 
      Number of CSFs                           175
      Number of determinants                   210
      Number of root(s) required                 1
      CI root used                               1
      highest root included in the CI            1
      Root passed to geometry opt.               1
--
 
++    Final optimization conditions:
      ------------------------------
 
      Average CI energy                              -3.01828104
      RASSCF energy for state  1                     -3.01828104
      Super-CI energy                                -0.00000000
      RASSCF energy change                           -0.00000000
      Max change in MO coefficients               0.129E-04
      Max non-diagonal density matrix element    -0.175E-04
      Maximum BLB matrix element                 -0.414E-05
      (orbital pair   3,   9 in symmetry   1)
      Norm of electronic gradient            0.584E-05
--
 
 
      Final state energy(ies):
      ------------------------
 
::    RASSCF root number  1 Total energy:     -3.01828104
 
++    Molecular orbitals:
      -------------------
 
      Pseudonatural active orbitals and approximate occupation numbers
 
 
 
 
      Molecular orbitals for symmetry species 1: a  
 
 
      Orbital                1         2         3         4         5         6         7         8         9        10
      Energy            0.0000    0.0000    0.0000    0.0000    0.0000    0.0000    0.3335    0.3600    0.4171    0.5155
      Occ. No.          1.5101    1.4275    1.2874    0.7200    0.4826    0.5724    0.0000    0.0000    0.0000    0.0000
 
    1 H1     1s         0.2554   -0.4263    0.4065   -0.4694    0.3473   -0.5405   -0.1063   -0.1048   -0.0225   -0.1908
    2 H1     2s         0.0178   -0.0322    0.0340   -0.0504    0.0449   -0.0640    0.3150    0.5356   -0.6456   -0.6462
    3 H1     2px       -0.0000    0.0000    0.0000    0.0000   -0.0000    0.0000   -0.0000    0.0000   -0.0000   -0.0000
    4 H1     2py       -0.0000    0.0000   -0.0000    0.0000   -0.0000    0.0000    0.0000    0.0000   -0.0000    0.0000
    5 H1     2pz        0.0031   -0.0039    0.0023   -0.0017    0.0029   -0.0032   -0.0246   -0.0340    0.0318    0.0452
    6 H2     1s         0.3445   -0.4624    0.2950    0.2763   -0.5225    0.5945   -0.1963   -0.1945    0.0596    0.0686
    7 H2     2s         0.0214   -0.0457    0.0490    0.0203   -0.0938    0.0879    0.2536    0.2555    0.0800    0.6160
    8 H2     2px        0.0000   -0.0000   -0.0000   -0.0000   -0.0000    0.0000   -0.0000   -0.0000   -0.0000    0.0000
    9 H2     2py       -0.0000    0.0000   -0.0000    0.0000    0.0000    0.0000    0.0000    0.0000   -0.0000   -0.0000
   10 H2     2pz        0.0015    0.0020   -0.0054    0.0022    0.0009   -0.0005    0.0022    0.0174   -0.0223    0.0144
   11 H3     1s         0.4301   -0.1012   -0.4704    0.5166    0.6428   -0.1844   -0.1914   -0.0404   -0.1283    0.0045
   12 H3     2s         0.0287    0.0035   -0.0595    0.0659    0.1155   -0.0401    0.3098    0.1310    0.4130    0.4836
   13 H3     2px       -0.0000    0.0000   -0.0000   -0.0000    0.0000    0.0000    0.0000    0.0000   -0.0000    0.0000
   14 H3     2py        0.0000   -0.0000    0.0000   -0.0000   -0.0000    0.0000    0.0000   -0.0000   -0.0000    0.0000
   15 H3     2pz        0.0003    0.0040   -0.0037   -0.0010    0.0023   -0.0010   -0.0028    0.0132   -0.0098   -0.0170
   16 H4     1s         0.4301    0.1012   -0.4704   -0.5166   -0.6428   -0.1844   -0.1914    0.0404   -0.1283   -0.0045
   17 H4     2s         0.0287   -0.0035   -0.0595   -0.0659   -0.1155   -0.0401    0.3098   -0.1310    0.4130   -0.4836
   18 H4     2px       -0.0000   -0.0000    0.0000   -0.0000   -0.0000   -0.0000   -0.0000   -0.0000    0.0000    0.0000
   19 H4     2py        0.0000   -0.0000    0.0000    0.0000    0.0000   -0.0000   -0.0000   -0.0000    0.0000   -0.0000
   20 H4     2pz       -0.0003    0.0040    0.0037   -0.0010    0.0023    0.0010    0.0028    0.0132    0.0098   -0.0170
   21 H5     1s         0.3445    0.4624    0.2950   -0.2763    0.5225    0.5945   -0.1963    0.1945    0.0596   -0.0686
   22 H5     2s         0.0214    0.0457    0.0490   -0.0203    0.0938    0.0879    0.2536   -0.2555    0.0800   -0.6160
   23 H5     2px        0.0000   -0.0000   -0.0000    0.0000    0.0000    0.0000   -0.0000   -0.0000   -0.0000   -0.0000
   24 H5     2py        0.0000   -0.0000    0.0000    0.0000   -0.0000   -0.0000   -0.0000   -0.0000    0.0000   -0.0000
   25 H5     2pz       -0.0015    0.0020    0.0054    0.0022    0.0009    0.0005   -0.0022    0.0174    0.0223    0.0144
   26 H6     1s         0.2554    0.4263    0.4065    0.4694   -0.3473   -0.5405   -0.1063    0.1048   -0.0225    0.1908
   27 H6     2s         0.0178    0.0322    0.0340    0.0504   -0.0449   -0.0640    0.3150   -0.5356   -0.6456    0.6462
   28 H6     2px        0.0000   -0.0000   -0.0000   -0.0000   -0.0000    0.0000   -0.0000   -0.0000   -0.0000    0.0000
   29 H6     2py       -0.0000   -0.0000   -0.0000    0.0000   -0.0000    0.0000    0.0000   -0.0000   -0.0000   -0.0000
   30 H6     2pz       -0.0031   -0.0039   -0.0023   -0.0017    0.0029    0.0032    0.0246   -0.0340   -0.0318    0.0452
 
 
      Orbital               11        12        13        14        15        16        17        18        19        20
      Energy            0.6510    0.7366    0.7491    0.8078    0.8078    0.8481    0.8481    0.9099    0.9099    0.9860
      Occ. No.          0.0000    0.0000    0.0000    0.0000    0.0000    0.0000    0.0000    0.0000    0.0000    0.0000
 
    1 H1     1s        -0.2584   -0.1600    0.2021   -0.0000    0.0000   -0.0000   -0.0000    0.0000   -0.0000   -0.0000
    2 H1     2s        -0.4796   -0.1486    0.1938   -0.0000    0.0000    0.0000    0.0000   -0.0000    0.0000   -0.0000
    3 H1     2px       -0.0000   -0.0000    0.0000   -0.2011   -0.0731   -0.3294   -0.2195   -0.3001   -0.4124    0.3578
    4 H1     2py       -0.0000   -0.0000    0.0000    0.0731   -0.2011    0.2195   -0.3294    0.4124   -0.3001   -0.3930
    5 H1     2pz        0.0950    0.3232   -0.3569   -0.0000   -0.0000   -0.0000   -0.0000   -0.0000   -0.0000   -0.0000
    6 H2     1s         0.2722    0.1169   -0.2176   -0.0000    0.0000    0.0000   -0.0000    0.0000    0.0000   -0.0000
    7 H2     2s         0.9588    0.3023   -0.5211    0.0000   -0.0000    0.0000   -0.0000   -0.0000   -0.0000    0.0000
    8 H2     2px       -0.0000   -0.0000    0.0000   -0.3648   -0.1327   -0.4136   -0.2757   -0.1370   -0.1882   -0.1576
    9 H2     2py       -0.0000   -0.0000   -0.0000    0.1327   -0.3648    0.2757   -0.4136    0.1882   -0.1370    0.1731
   10 H2     2pz        0.0603   -0.3691    0.3403    0.0000    0.0000    0.0000    0.0000    0.0000    0.0000    0.0000
   11 H3     1s        -0.1242   -0.0494    0.2611   -0.0000    0.0000   -0.0000   -0.0000   -0.0000    0.0000    0.0000
   12 H3     2s        -0.5124   -0.1552    0.6887   -0.0000    0.0000   -0.0000    0.0000   -0.0000   -0.0000    0.0000
   13 H3     2px        0.0000    0.0000   -0.0000   -0.4572   -0.1663   -0.1838   -0.1225    0.2417    0.3321   -0.2884
   14 H3     2py       -0.0000   -0.0000    0.0000    0.1663   -0.4572    0.1225   -0.1838   -0.3321    0.2417    0.3167
   15 H3     2pz       -0.2255    0.3461   -0.1372    0.0000   -0.0000    0.0000    0.0000    0.0000    0.0000    0.0000
   16 H4     1s        -0.1242   -0.0494   -0.2611    0.0000    0.0000    0.0000   -0.0000    0.0000    0.0000    0.0000
   17 H4     2s        -0.5124   -0.1552   -0.6887   -0.0000   -0.0000    0.0000   -0.0000    0.0000    0.0000   -0.0000
   18 H4     2px        0.0000    0.0000    0.0000   -0.4572   -0.1663    0.1838    0.1225    0.2417    0.3321    0.2884
   19 H4     2py        0.0000    0.0000    0.0000    0.1663   -0.4572   -0.1225    0.1838   -0.3321    0.2417   -0.3167
   20 H4     2pz        0.2255   -0.3461   -0.1372    0.0000   -0.0000   -0.0000   -0.0000   -0.0000   -0.0000    0.0000
   21 H5     1s         0.2722    0.1169    0.2176    0.0000   -0.0000   -0.0000    0.0000    0.0000   -0.0000    0.0000
   22 H5     2s         0.9588    0.3023    0.5211   -0.0000    0.0000   -0.0000   -0.0000   -0.0000   -0.0000   -0.0000
   23 H5     2px        0.0000   -0.0000    0.0000   -0.3648   -0.1327    0.4136    0.2757   -0.1370   -0.1882    0.1576
   24 H5     2py        0.0000    0.0000    0.0000    0.1327   -0.3648   -0.2757    0.4136    0.1882   -0.1370   -0.1731
   25 H5     2pz       -0.0603    0.3691    0.3403   -0.0000    0.0000    0.0000   -0.0000    0.0000   -0.0000    0.0000
   26 H6     1s        -0.2584   -0.1600   -0.2021   -0.0000   -0.0000    0.0000   -0.0000   -0.0000    0.0000    0.0000
   27 H6     2s        -0.4796   -0.1486   -0.1938    0.0000    0.0000   -0.0000    0.0000   -0.0000    0.0000    0.0000
   28 H6     2px       -0.0000   -0.0000    0.0000   -0.2011   -0.0731    0.3294    0.2195   -0.3001   -0.4124   -0.3578
   29 H6     2py        0.0000   -0.0000    0.0000    0.0731   -0.2011   -0.2195    0.3294    0.4124   -0.3001    0.3930
   30 H6     2pz       -0.0950   -0.3232   -0.3569   -0.0000   -0.0000   -0.0000    0.0000   -0.0000    0.0000   -0.0000
 
 
      Orbital               21        22        23        24        25        26        27        28        29        30
      Energy            0.9860    1.0604    1.0604    1.1160    1.1160    1.1707    1.1844    1.2787    1.4319    1.5697
      Occ. No.          0.0000    0.0000    0.0000    0.0000    0.0000    0.0000    0.0000    0.0000    0.0000    0.0000
 
    1 H1     1s        -0.0000   -0.0000   -0.0000    0.0000    0.0000   -0.2348    0.2156    0.2233   -0.1748    0.1088
    2 H1     2s         0.0000   -0.0000    0.0000    0.0000   -0.0000   -0.4310    0.3538    0.3554   -0.2049    0.0981
    3 H1     2px       -0.3930    0.3245   -0.3039   -0.0389    0.2508    0.0000    0.0000    0.0000   -0.0000    0.0000
    4 H1     2py       -0.3578   -0.3039   -0.3245    0.2508    0.0389    0.0000   -0.0000   -0.0000    0.0000    0.0000
    5 H1     2pz       -0.0000   -0.0000   -0.0000    0.0000   -0.0000   -0.4879    0.2055    0.5837   -0.4904    0.2847
    6 H2     1s        -0.0000    0.0000    0.0000   -0.0000    0.0000    0.5254   -0.6251   -0.3573    0.0818    0.0275
    7 H2     2s        -0.0000    0.0000    0.0000   -0.0000    0.0000    0.8345   -1.0752   -0.4659    0.1093   -0.0224
    8 H2     2px        0.1731   -0.4012    0.3758    0.0695   -0.4480    0.0000   -0.0000   -0.0000   -0.0000   -0.0000
    9 H2     2py        0.1576    0.3758    0.4012   -0.4480   -0.0695   -0.0000    0.0000    0.0000   -0.0000    0.0000
   10 H2     2pz       -0.0000    0.0000    0.0000   -0.0000    0.0000    0.1608   -0.3662    0.2985   -0.6791    0.5556
   11 H3     1s        -0.0000    0.0000   -0.0000    0.0000   -0.0000   -0.2886    0.9934    0.0011    0.1241    0.0371
   12 H3     2s         0.0000   -0.0000   -0.0000    0.0000   -0.0000   -0.4483    1.6831    0.0910    0.0597    0.0391
   13 H3     2px        0.3167    0.1772   -0.1660   -0.0864    0.5572   -0.0000    0.0000    0.0000   -0.0000    0.0000
   14 H3     2py        0.2884   -0.1660   -0.1772    0.5572    0.0864    0.0000   -0.0000   -0.0000    0.0000   -0.0000
   15 H3     2pz        0.0000    0.0000   -0.0000   -0.0000   -0.0000    0.5165    0.1900   -0.4858   -0.2829    0.6919
   16 H4     1s        -0.0000    0.0000   -0.0000   -0.0000    0.0000   -0.2886   -0.9934   -0.0011    0.1241   -0.0371
   17 H4     2s        -0.0000    0.0000    0.0000   -0.0000    0.0000   -0.4483   -1.6831   -0.0910    0.0597   -0.0391
   18 H4     2px       -0.3167    0.1772   -0.1660    0.0864   -0.5572   -0.0000   -0.0000   -0.0000    0.0000   -0.0000
   19 H4     2py       -0.2884   -0.1660   -0.1772   -0.5572   -0.0864   -0.0000    0.0000    0.0000    0.0000    0.0000
   20 H4     2pz        0.0000   -0.0000   -0.0000    0.0000   -0.0000   -0.5165    0.1900   -0.4858    0.2829    0.6919
   21 H5     1s        -0.0000   -0.0000   -0.0000    0.0000   -0.0000    0.5254    0.6251    0.3573    0.0818   -0.0275
   22 H5     2s         0.0000   -0.0000   -0.0000    0.0000   -0.0000    0.8345    1.0752    0.4659    0.1093    0.0224
   23 H5     2px       -0.1731   -0.4012    0.3758   -0.0695    0.4480    0.0000    0.0000    0.0000   -0.0000   -0.0000
   24 H5     2py       -0.1576    0.3758    0.4012    0.4480    0.0695    0.0000   -0.0000   -0.0000   -0.0000    0.0000
   25 H5     2pz       -0.0000    0.0000    0.0000   -0.0000    0.0000   -0.1608   -0.3662    0.2985    0.6791    0.5556
   26 H6     1s         0.0000   -0.0000   -0.0000   -0.0000   -0.0000   -0.2348   -0.2156   -0.2233   -0.1748   -0.1088
   27 H6     2s        -0.0000    0.0000    0.0000   -0.0000    0.0000   -0.4310   -0.3538   -0.3554   -0.2049   -0.0981
   28 H6     2px        0.3930    0.3245   -0.3039    0.0389   -0.2508    0.0000   -0.0000   -0.0000   -0.0000   -0.0000
   29 H6     2py        0.3578   -0.3039   -0.3245   -0.2508   -0.0389   -0.0000    0.0000    0.0000    0.0000   -0.0000
   30 H6     2pz        0.0000   -0.0000   -0.0000    0.0000   -0.0000    0.4879    0.2055    0.5837    0.4904    0.2847
--
 
      Von Neumann Entropy (Root  1) =  2.60452
 

      Mulliken population analysis for root number:  1
      -----------------------------------------------
 
 
++    Molecular charges:
      ------------------
 
      Mulliken charges per centre and basis function type
      ---------------------------------------------------
 
                H1      H2      H3      H4      H5      H6    
      1s       0.9864  1.0020  1.0012  1.0012  1.0020  0.9864
      2s       0.0078  0.0015 -0.0030 -0.0030  0.0015  0.0078
      2px      0.0000  0.0000  0.0000  0.0000  0.0000  0.0000
      2pz      0.0006  0.0018  0.0016  0.0016  0.0018  0.0006
      2py      0.0000  0.0000  0.0000  0.0000  0.0000  0.0000
      Total    0.9948  1.0054  0.9998  0.9998  1.0054  0.9948
 
      N-E      0.0052 -0.0054  0.0002  0.0002 -0.0054  0.0052
 
      Total electronic charge=    6.000000
 
      Total            charge=   -0.000000
--
 
 

      Expectation values of various properties for root number:  1
      -----------------------------------------------------------
 
 
++    Molecular properties:
      ---------------------
 
      Charge (e):
                      =   -0.0000
      Dipole Moment (Debye):
      Origin of the operator (Ang)=    0.0000    0.0000    0.0000
                   X=  2.1503E-13               Y=  4.6887E-13               Z=  3.2508E-13           Total=  6.0972E-13
      Quadrupole Moment (Debye*Ang):
      Origin of the operator (Ang)=    0.0000    0.0000    5.5606
                  XX= -9.2303E+00              XY=  5.9840E-28              XZ= -6.8812E-13              YY= -9.2303E+00
                  YZ= -7.8912E-13              ZZ= -7.8442E+00
      In traceless form (Debye*Ang)
                  XX= -6.9303E-01              XY=  8.9760E-28              XZ= -1.0322E-12              YY= -6.9303E-01
                  YZ= -1.1837E-12              ZZ=  1.3861E+00
--
 

      LoProp population analysis for root number:  1
      -----------------------------------------------
 
 
++    LoProp analysis:
      ----------------
 
 
 
  Input file to MOLDEN was generated!
 
 
++    Static properties:
      ------------------
 
 
      LoProp Charges per center
 

                   H1       H2       H3       H4       H5       H6    
      Nuclear      1.0000   1.0000   1.0000   1.0000   1.0000   1.0000
      Electronic  -1.0001  -1.0000  -0.9999  -0.9999  -1.0000  -1.0001
 
      Total       -0.0001   0.0000   0.0001   0.0001   0.0000  -0.0001
--
 
 
      Natural Bond Order analysis for root number:  1
 
++    Natural Bond Order analysis
      ---------------------------
      Based on LoProp computed density
      -------------------------------------------------------------------------------------
      Atom A       Atom B       Bond Order
      -------------------------------------------------------------------------------------
      The remaining    6.000 electrons are to be considered as diffuse
--
 
--
 
 
  Input file to MOLDEN was generated!
 
      Average orbitals are written to the RASORB file
      Natural orbitals for root   1 are written to the RASORB.1 file
      Spin density orbitals for root   1 are written to the SPDORB.1 file
 
--- Stop Module: rasscf at Mon Nov 18 14:11:59 2024 /rc=_RC_ALL_IS_WELL_ ---
*** files: H6_2.22.LprOrb H6_2.22.rasscf.molden H6_2.22.LoProp.molden H6_2.22.RasOrb H6_2.22.RasOrb.1 H6_2.22.rasscf.h5 H6_2.22.SpdOrb.1 xmldump
    saved to directory /home/grierjones/DDCASPT2/hydrogen_comps/H6_chain/H6_2.22

>>> COPY /tmp/H6_2.22/H6_2.22.rasscf.h5 /home/grierjones/DDCASPT2/hydrogen_comps/H6_chain/H6_2.22/

>>> COPY /tmp/H6_2.22/GMJ_Fock_MO.csv /home/grierjones/DDCASPT2/hydrogen_comps/H6_chain/H6_2.22/H6_2.22.GMJ_Fock_MO.csv

>>> COPY /tmp/H6_2.22/GMJ_PT2_Fock_MO.csv /home/grierjones/DDCASPT2/hydrogen_comps/H6_chain/H6_2.22/H6_2.22.GMJ_PT2_Fock_MO.csv

*** symbolic link created: INPORB -> H6_2.22.RasOrb
--- Start Module: motra at Mon Nov 18 14:11:59 2024 ---
 
()()()()()()()()()()()()()()()()()()()()()()()()()()()()()()()()()()()()()()()()()()()()()()()()()()

                                               &MOTRA

                                   only a single process is used
                       available to each process: 2.0 GB of memory, 1 thread?
()()()()()()()()()()()()()()()()()()()()()()()()()()()()()()()()()()()()()()()()()()()()()()()()()()
 
 
      *** WARNING: Default frozen orbitals is overwritten by user input.
      *** Default values:   0
 
      Header of the integral files:
      
       Integrals generated by seward 4.2.0  , Mon Nov 18 14:11:58 2024
 
 
      Header of MO coefficients source file:
      * RASSCF average (pseudo-natural) orbitals                                      
 
 
      Cartesian coordinates in Angstrom:
      -----------------------------------------------------
      No.  Label        X            Y            Z        
      -----------------------------------------------------
       1   H1         0.00000000   0.00000000   0.00000000
       2   H2         0.00000000   0.00000000   2.22424200
       3   H3         0.00000000   0.00000000   4.44848500
       4   H4         0.00000000   0.00000000   6.67272700
       5   H5         0.00000000   0.00000000   8.89697000
       6   H6         0.00000000   0.00000000  11.12121200
      -----------------------------------------------------
      Nuclear repulsion energy =    2.06984709
 
      Orbital specifications:
      -----------------------
 
      Symmetry species:              1
      Number of basis functions:    30
      Frozen orbitals:               0
      Deleted orbitals:              0
      Number of orbitals used:      30

       SYMMETRY  BASIS FUNCTIONS       ORBITALS      INTEGRALS   CPU(SEC)  I/O(SEC)
 
        1 1 1 1   30  30  30  30    30  30  30  30      108345       0.00      0.00

       TOTAL CPU TIME(SEC)    0.06TOTAL I/O TIME(SEC)    0.14
 
--- Stop Module: motra at Mon Nov 18 14:12:00 2024 /rc=_RC_ALL_IS_WELL_ ---
*** files: xmldump
    saved to directory /home/grierjones/DDCASPT2/hydrogen_comps/H6_chain/H6_2.22

>>> COPY /tmp/H6_2.22/GMJ_one_int_indx.csv /home/grierjones/DDCASPT2/hydrogen_comps/H6_chain/H6_2.22/H6_2.22.GMJ_one_int_indx.csv

>>> COPY /tmp/H6_2.22/GMJ_one_int.csv /home/grierjones/DDCASPT2/hydrogen_comps/H6_chain/H6_2.22/H6_2.22.GMJ_one_int.csv

>>> COPY /tmp/H6_2.22/GMJ_two_int_indx.csv /home/grierjones/DDCASPT2/hydrogen_comps/H6_chain/H6_2.22/H6_2.22.GMJ_two_int_indx.csv

>>> COPY /tmp/H6_2.22/GMJ_two_int.csv /home/grierjones/DDCASPT2/hydrogen_comps/H6_chain/H6_2.22/H6_2.22.GMJ_two_int.csv

*** symbolic link created: INPORB -> H6_2.22.RasOrb
--- Start Module: caspt2 at Mon Nov 18 14:12:00 2024 ---
 
()()()()()()()()()()()()()()()()()()()()()()()()()()()()()()()()()()()()()()()()()()()()()()()()()()

                                              &CASPT2

                                   only a single process is used
                       available to each process: 2.0 GB of memory, 1 thread?
()()()()()()()()()()()()()()()()()()()()()()()()()()()()()()()()()()()()()()()()()()()()()()()()()()
 
 Cholesky algorithm in CASPT2 =    1
 
 ###############################################################################
 ###############################################################################
 ###                                                                         ###
 ###                                                                         ###
 ###    User changed nr of frozen orbitals.                                  ###
 ###                                                                         ###
 ###                                                                         ###
 ###############################################################################
 ###############################################################################
 
++    Wave function specifications:
      -----------------------------
 
      Number of closed shell electrons           0
      Number of electrons in active shells       6
      Max number of holes in RAS1 space          0
      Max number of electrons in RAS3 space      0
      Number of inactive orbitals                0
      Number of active orbitals                  6
      Number of secondary orbitals              24
      Spin quantum number                      0.0
      State symmetry                             1
      Number of CSFs                           175
      Number of root(s) available                1
      Root passed to geometry opt.               1
      A file JOBMIX will be created.
      This is a CASSCF or RASSCF reference function
--
 
++    Orbital specifications:
      -----------------------
 
      Symmetry species                           1
                                                 a
      Frozen orbitals                            0
      Inactive orbitals                          0
      Active orbitals                            6
      Secondary orbitals                        24
      Deleted orbitals                           0
      Number of basis functions                 30
--
 
      Type of Fock operator: STANDARD
      Type of 0-order Hamiltonian: STANDARD WITH DEFAULT IPEA
        "IP-EA" denominator shift =      0.25
      The input orbitals and the CI vector will be transformed.
 
--------------------------------------------------------------------------------
 Estimated memory requirements:
  POLY3 :                   262414
  RHS:                      285604
  SIGMA :                   275200
  PRPCTL:                        0
 Available workspace:    230396124
 
++ CASPT2 computation for group   1
 
********************************************************************************
 Multi-State initialization phase begins for group   1
--------------------------------------------------------------------------------
********************************************************************************
 Compute H0 matrices for state    1
--------------------------------------------------------------------------------
--------------------------------------------------------------------------------
 H0 matrices have been computed.
 
********************************************************************************
  CASPT2 EQUATION SOLUTION
--------------------------------------------------------------------------------
 
  Total nr of CASPT2 parameters:
   Before reduction:       15624
   After  reduction:       15048
 
 The contributions to the second order correlation energy in atomic units.
-----------------------------------------------------------------------------------------------------------------------------
  IT.      VJTU        VJTI        ATVX        AIVX        VJAI        BVAT        BJAT        BJAI        TOTAL       RNORM  
-----------------------------------------------------------------------------------------------------------------------------
   1     0.000000    0.000000   -0.001406    0.000000    0.000000   -0.003792    0.000000    0.000000   -0.005198    0.000726
   2     0.000000    0.000000   -0.001421    0.000000    0.000000   -0.003797    0.000000    0.000000   -0.005218    0.000091
   3     0.000000    0.000000   -0.001421    0.000000    0.000000   -0.003798    0.000000    0.000000   -0.005219    0.000018
   4     0.000000    0.000000   -0.001421    0.000000    0.000000   -0.003798    0.000000    0.000000   -0.005219    0.000002
-------------------------------------------------------------------------------------------------------------------
 
  FINAL CASPT2 RESULT:
 
  Correlation energy /Case, /Symm, and sums:
 VJTU      0.00000000  0.00000000
 VJTIP     0.00000000  0.00000000
 VJTIM     0.00000000  0.00000000
 ATVX     -0.00142102 -0.00142102
 AIVX      0.00000000  0.00000000
 VJAIP     0.00000000  0.00000000
 VJAIM     0.00000000  0.00000000
 BVATP    -0.00355985 -0.00355985
 BVATM    -0.00023773 -0.00023773
 BJATP     0.00000000  0.00000000
 BJATM     0.00000000  0.00000000
 BJAIP     0.00000000  0.00000000
 BJAIM     0.00000000  0.00000000
 Summed:  -0.00521860 -0.00521860
 
      Reference energy:          -3.0182810419
      E2 (Non-variational):      -0.0052186025
      E2 (Variational):          -0.0052186066
      Total energy:              -3.0234996485
      Residual norm:              0.0000003067
      Reference weight:           0.99678
 
      Contributions to the CASPT2 correlation energy
      Active & Virtual Only:         -0.0052186025
      One Inactive Excited:           0.0000000000
      Two Inactive Excited:           0.0000000000
 
 
++ Denominators, etc.
----------------------------------------------------------------------------------------------------
 Report on small energy denominators, large coefficients, and large energy contributions.
CASE  SYMM ACTIVE-MIX  NON-ACTIVE INDICES          DENOMINATOR     RHS VALUE       COEFFICIENT     CONTRIBUTION
--
 
   (Skipping property calculation,
    use PROP keyword to activate)
--
 
  Total CASPT2 energies:
::    CASPT2 Root  1     Total energy:     -3.02349965
 
  A NEW JOBIPH FILE NAMED 'JOBMIX' IS PREPARED.
********************************************************************************
--- Stop Module: caspt2 at Mon Nov 18 14:12:00 2024 /rc=_RC_ALL_IS_WELL_ ---
*** files: xmldump
    saved to directory /home/grierjones/DDCASPT2/hydrogen_comps/H6_chain/H6_2.22

>>> EXPORT i = B

>>> EXPORT j = P

>>> IF (-FILE GMJ_e2_${i}_${j}.csv)
(Skipped)

>>> END FOREACH

>>> EXPORT j = M

>>> IF (-FILE GMJ_e2_${i}_${j}.csv)
(Skipped)

>>> END FOREACH

>>> END FOREACH

>>> EXPORT i = E

>>> EXPORT j = P

>>> IF (-FILE GMJ_e2_${i}_${j}.csv)
(Skipped)

>>> END FOREACH

>>> EXPORT j = M

>>> IF (-FILE GMJ_e2_${i}_${j}.csv)
(Skipped)

>>> END FOREACH

>>> END FOREACH

>>> EXPORT i = F

>>> EXPORT j = P

>>> IF (-FILE GMJ_e2_${i}_${j}.csv)

>>> COPY /tmp/H6_2.22/GMJ_RHS_F_P.csv /home/grierjones/DDCASPT2/hydrogen_comps/H6_chain/H6_2.22/GMJ_RHS_F_P.csv

>>> COPY /tmp/H6_2.22/GMJ_IVECW_F_P.csv /home/grierjones/DDCASPT2/hydrogen_comps/H6_chain/H6_2.22/GMJ_IVECW_F_P.csv

>>> COPY /tmp/H6_2.22/GMJ_IVECX_F_P.csv /home/grierjones/DDCASPT2/hydrogen_comps/H6_chain/H6_2.22/GMJ_IVECX_F_P.csv

>>> COPY /tmp/H6_2.22/GMJ_IVECC2_F_P.csv /home/grierjones/DDCASPT2/hydrogen_comps/H6_chain/H6_2.22/GMJ_IVECC2_F_P.csv

>>> COPY /tmp/H6_2.22/GMJ_e2_F_P.csv /home/grierjones/DDCASPT2/hydrogen_comps/H6_chain/H6_2.22/GMJ_e2_F_P.csv

>>> END FOREACH

>>> EXPORT j = M

>>> IF (-FILE GMJ_e2_${i}_${j}.csv)

>>> COPY /tmp/H6_2.22/GMJ_RHS_F_M.csv /home/grierjones/DDCASPT2/hydrogen_comps/H6_chain/H6_2.22/GMJ_RHS_F_M.csv

>>> COPY /tmp/H6_2.22/GMJ_IVECW_F_M.csv /home/grierjones/DDCASPT2/hydrogen_comps/H6_chain/H6_2.22/GMJ_IVECW_F_M.csv

>>> COPY /tmp/H6_2.22/GMJ_IVECX_F_M.csv /home/grierjones/DDCASPT2/hydrogen_comps/H6_chain/H6_2.22/GMJ_IVECX_F_M.csv

>>> COPY /tmp/H6_2.22/GMJ_IVECC2_F_M.csv /home/grierjones/DDCASPT2/hydrogen_comps/H6_chain/H6_2.22/GMJ_IVECC2_F_M.csv

>>> COPY /tmp/H6_2.22/GMJ_e2_F_M.csv /home/grierjones/DDCASPT2/hydrogen_comps/H6_chain/H6_2.22/GMJ_e2_F_M.csv

>>> END FOREACH

>>> END FOREACH

>>> EXPORT i = G

>>> EXPORT j = P

>>> IF (-FILE GMJ_e2_${i}_${j}.csv)
(Skipped)

>>> END FOREACH

>>> EXPORT j = M

>>> IF (-FILE GMJ_e2_${i}_${j}.csv)
(Skipped)

>>> END FOREACH

>>> END FOREACH

>>> EXPORT i = H

>>> EXPORT j = P

>>> IF (-FILE GMJ_e2_${i}_${j}.csv)
(Skipped)

>>> END FOREACH

>>> EXPORT j = M

>>> IF (-FILE GMJ_e2_${i}_${j}.csv)
(Skipped)

>>> END FOREACH

>>> END FOREACH

>>> EXPORT i = A

>>> IF (-FILE GMJ_e2_$i.csv)
(Skipped)

>>> END FOREACH

>>> EXPORT i = C

>>> IF (-FILE GMJ_e2_$i.csv)

>>> COPY /tmp/H6_2.22/GMJ_RHS_C.csv /home/grierjones/DDCASPT2/hydrogen_comps/H6_chain/H6_2.22/GMJ_RHS_C.csv

>>> COPY /tmp/H6_2.22/GMJ_IVECW_C.csv /home/grierjones/DDCASPT2/hydrogen_comps/H6_chain/H6_2.22/GMJ_IVECW_C.csv

>>> COPY /tmp/H6_2.22/GMJ_IVECX_C.csv /home/grierjones/DDCASPT2/hydrogen_comps/H6_chain/H6_2.22/GMJ_IVECX_C.csv

>>> COPY /tmp/H6_2.22/GMJ_IVECC2_C.csv /home/grierjones/DDCASPT2/hydrogen_comps/H6_chain/H6_2.22/GMJ_IVECC2_C.csv

>>> COPY /tmp/H6_2.22/GMJ_e2_C.csv /home/grierjones/DDCASPT2/hydrogen_comps/H6_chain/H6_2.22/GMJ_e2_C.csv

>>> END FOREACH

>>> EXPORT i = D

>>> IF (-FILE GMJ_e2_$i.csv)
(Skipped)

>>> END FOREACH

.########################.
.# Non-zero return code #.
.########################.

    Timing: Wall=1.81 User=1.08 System=0.72
***************************************
*** WorkDir at /tmp/H6_2.22 cleaned ***
***************************************
