   This run of MOLCAS is using the pymolcas driver

                             OPE
                             OPE          NMOL  CASOP  ENMOLC A   SO
                 OPE        NMOLC        AS  OP EN  MO LC     AS  OP
                OPENM       OL CA        SO  PE NM  OL CA     SOP EN
                OP EN      MO   LC       AS  OP ENMOL  CASO   PENMOL
                OP  EN     MO   LC       AS  OP EN     MO     LC ASO
               OP   E  NMOL  C  AS       OP  EN MO     LC     AS  OP
               OP  E   NMO   LC AS        OPEN  MO     LCASOP EN   M
               O  PEN   MO  LCA  SO
            OPE   NMO   L   CAS    OP
        OPENMOL  CASOP     ENMOL   CASOPE
     OPENMOLCA   SOPENMOLCASOPEN   MOLCASOPE
    OPENMOLCAS   OP           EN   MOL    CAS
    OPENMOLCAS       OP  ENM        O     LCA
    OPENMOLCAS    OPEN  MOLCASO     P  E  NMO
    OPENMOLCAS     OP               E  N  MOL
    OPENMOLCA   SO           PENM   O  L  CAS    OPEN    MO    LCAS
    OPENMOLCA   SOP           ENM   O  L  CAS   OP  EN  MOLC  AS   O
    OPENMOLCA   SOPE           NM      O  LCA   S      OP  EN MO
    OPENMOLC                AS         O  PEN   M      OL  CA  SOPE
    OPENMO        LCASOPE  NMOL        C  ASO   P      ENMOLC     AS
    OPE     NMO      LCA  SO     P     E   NM   OL  CA SO  PE N   MO
          OPENMOLCA            SOPE   NMO        LCAS  O    P  ENMO
     OPENMOLCASOPENMOLCASOPENMOLCASOPENMOLCA
        OPENMOLCASOPENMOLCASOPENMOLCASOPE
            OPENMOLCASOPENMOLCASOPENM
               OPENMOLCASOPENMOLCA        version: 24.02
                   OPENMOLCASO
                       OPE                tag: 126-g611b04c8f

 OpenMolcas is free software; you can redistribute it and/or modify it
 under the terms of the GNU Lesser General Public License version 2.1.
 OpenMolcas is distributed in the hope that it will be useful, but it
 is provided "as is" and without any express or implied warranties.
 For more details see the full text of the license in the file
 LICENSE or in <http://www.gnu.org/licenses/>.

                 Copyright (C) The OpenMolcas Authors
           For the author list and the recommended citation,
                   consult the file CONTRIBUTORS.md

           *************************************************
           * pymolcas version py2.28                       *
           *   build c4a6d18ded8cb6cad61d2372a9abd97c      *
           *   (after the EMIL interpreter by V. Veryazov) *
           *************************************************

configuration info
------------------
Host name: debian (Linux)
C Compiler ID: GNU
C flags: -std=gnu99
Fortran Compiler ID: Intel
Fortran flags: -fpp -i8 -heap-arrays
Definitions: _MOLCAS_;_I8_;_LINUX_
Parallel: OFF (GA=OFF)


   ------------------------------------------------------------------
  |
  |              Project: 1.10
  |       Submitted from: /home/grierjones/DDCASPT2/delta_ML/BeO/1.10
  |         Scratch area: /tmp/1.10
  |      Save outputs to: /home/grierjones/DDCASPT2/delta_ML/BeO/1.10
  |               Molcas: /usr/local
  |
  | Scratch area is empty
  |
  |       MOLCAS_DRIVER = /usr/local/pymolcas
  | MOLCAS_KEEP_WORKDIR = NO
  |  MOLCAS_NEW_WORKDIR = YES
  |       MOLCAS_NPROCS = 1
  |       MOLCAS_SOURCE = /usr/local
  |    MOLCAS_STRUCTURE = 0
  |
   ------------------------------------------------------------------

++ ---------   Input file   ---------

&GATEWAY
coord=1.10.xyz
Basis = ANO-RCC-MB
Group = nosymm
End of Input

&SEWARD
End of Input

&SCF
UHF

&MBPT2
Frozen
0

&RASSCF
Title= RASSCF
FileOrb
/home/grierjones/DDCASPT2/delta_ML/BeO/1.00/1.00.RasOrb

NACTEL
2 0 0
Inactive
5
RAS2
2
Symmetry
1
Spin
1
orblisting
all
ITERation
200 100
CIMX
200
SDAV
500

&CASPT2
Imaginary Shift
0.0
Frozen
0

-- ----------------------------------

--- Start Module: gateway at Thu Apr 25 13:45:42 2024 ---
 
()()()()()()()()()()()()()()()()()()()()()()()()()()()()()()()()()()()()()()()()()()()()()()()()()()

                                              &GATEWAY

                                   only a single process is used
                       available to each process: 2.0 GB of memory, 1 thread?
                                            pid: 102586
()()()()()()()()()()()()()()()()()()()()()()()()()()()()()()()()()()()()()()()()()()()()()()()()()()
 
 
++    Symmetry information:
      ---------------------
 
                    Character Table for C1 
 
                             E  
                    a        1  x, y, xy, Rz, z, xz, Ry, yz, Rx, I
--
 
 
++    Basis set information:
      ----------------------
 
 
      Basis set label: BE.ANO-RCC...2S1P.
 
      Electronic valence basis set:
      ------------------
      Associated Effective Charge   4.000000 au
      Associated Actual Charge      4.000000 au
      Nuclear Model: Point charge
 
      Shell  nPrim  nBasis  Cartesian Spherical Contaminant
         s      14       2        X                  
         p       9       1        X                  
 
 
      Basis set label: O.ANO-RCC...2S1P.
 
      Electronic valence basis set:
      ------------------
      Associated Effective Charge   8.000000 au
      Associated Actual Charge      8.000000 au
      Nuclear Model: Point charge
 
      Shell  nPrim  nBasis  Cartesian Spherical Contaminant
         s      14       2        X                  
         p       9       1        X                  
--
 
 
++    Molecular structure info:
      -------------------------
 
                    ************************************************ 
                    **** Cartesian Coordinates / Bohr, Angstrom **** 
                    ************************************************ 
 
     Center  Label                x              y              z                     x              y              z
        1      BE1              0.000000       0.000000       0.000000              0.000000       0.000000       0.000000
        2      O2               0.000000       0.000000       2.078699              0.000000       0.000000       1.100000
--
 
 
            Nuclear Potential Energy             15.39424614 au
 
--- Stop Module: gateway at Thu Apr 25 13:45:42 2024 /rc=_RC_ALL_IS_WELL_ ---
*** files: xmldump
    saved to directory /home/grierjones/DDCASPT2/delta_ML/BeO/1.10

--- Start Module: seward at Thu Apr 25 13:45:42 2024 ---
 
()()()()()()()()()()()()()()()()()()()()()()()()()()()()()()()()()()()()()()()()()()()()()()()()()()

                                              &SEWARD

                                   only a single process is used
                       available to each process: 2.0 GB of memory, 1 thread?
                                            pid: 102589
()()()()()()()()()()()()()()()()()()()()()()()()()()()()()()()()()()()()()()()()()()()()()()()()()()
 
               SEWARD will generate:
                  Multipole Moment integrals up to order  2
                  Kinetic Energy integrals
                  Nuclear Attraction integrals (point charge)
                  One-Electron Hamiltonian integrals
                  Velocity integrals
                  Relativistic Douglas-Kroll-Hess integrals:
                    - Parametrization         : EXP
                    - DKH order of Hamiltonian: 2
                    - DKH order of Properties : 0
                         - multipole moment operators
                         - electric potential operators
                         - contact operators
                  Orbital angular momentum around ( 0.0000  0.0000  1.3296 )
                  Velocity quadrupole around ( 0.0000  0.0000  1.3296 )
                  Atomic mean-field integrals
                  Two-Electron Repulsion integrals
 
                   Integrals are discarded if absolute value <: 1.00E-14
                   Integral cutoff threshold is set to       <: 1.00E-16
 
            Nuclear Potential Energy             15.39424614 au
 
 
      Basis set specifications :
      Symmetry species         a  
      Basis functions           10
 
 
      Input file to MOLDEN was generated!
 
--- Stop Module: seward at Thu Apr 25 13:45:43 2024 /rc=_RC_ALL_IS_WELL_ ---
*** files: 1.10.GssOrb 1.10.guessorb.h5 1.10.guessorb.molden xmldump
    saved to directory /home/grierjones/DDCASPT2/delta_ML/BeO/1.10

*** symbolic link created: INPORB -> 1.10.GssOrb
--- Start Module: scf at Thu Apr 25 13:45:43 2024 ---
 
()()()()()()()()()()()()()()()()()()()()()()()()()()()()()()()()()()()()()()()()()()()()()()()()()()

                                                &SCF

                                   only a single process is used
                       available to each process: 2.0 GB of memory, 1 thread?
                                            pid: 102593
()()()()()()()()()()()()()()()()()()()()()()()()()()()()()()()()()()()()()()()()()()()()()()()()()()
 
++    Input section:
      --------------
 
      Header of the integral files:
      
       Integrals generated by Gateway/Seward, Thu Apr 25 13:45:42 2024
 
 
      Cartesian coordinates in Angstrom:
      -----------------------------------------------------
      No.  Label        X            Y            Z        
      -----------------------------------------------------
       1   BE1        0.00000000   0.00000000   0.00000000
       2   O2         0.00000000   0.00000000   1.10000000
      -----------------------------------------------------
      Nuclear repulsion energy =   15.39424614
--
 
++    Orbital specifications:
      -----------------------
 
      Symmetry species               1
                                     a
      Frozen orbitals                0
      Occupied orbitals alpha        6
      Occupied orbitals beta         6
      Secondary orbitals alpha       4
      Secondary orbitals beta        4
      Deleted orbitals               0
      Total number of orbitals      10
      Number of basis functions     10
--
 
      Molecular charge                           0.000
 
++    Optimization specifications:
      ----------------------------
 
      SCF Algorithm: Conventional USCF
      D(i)-D(i-1) density differences are used
      Number of density matrices in core                 5
      Maximum number of NDDO SCF iterations            400
      Maximum number of HF SCF iterations              400
      Threshold for SCF energy change             1.00E-09
      Threshold for density matrix                1.00E-04
      Threshold for Fock matrix                   1.50E-04
      Threshold for linear dependence             1.00E-09
      Threshold at which DIIS is turned on        1.50E-01
      Maximum depth in the DIIS procedure                5
      Maximum depth in the BFGS Hessian update          30
      Threshold at which QNR/C2DIIS is turned on  7.50E-02
      Threshold for Norm(delta) (QNR/C2DIIS)      1.00E-03
      All orbitals punched on: UHFORB
--
 
      Input vectors read from INPORB
      Orbital file label: *Guess orbitals
 
 
++ Convergence information
                               UHF SCF        iterations: Energy and convergence statistics
 
Iter     Tot. SCF        One-elec.       Two-elec.     Energy      Max Dij or  Max Fij      DNorm      TNorm      AccCon     Time
         Energy          Energy          Energy        Change      Delta Norm                                                in Sec.
   1   -88.944735323  -156.911848702    52.572867244   0.00E+00    9.32E-01*   2.03E-01*    4.94E+00   2.49E+01   None         0.
   2   -88.612654051  -146.789482784    42.782582598   3.32E-01*   2.42E-01*   1.23E-01*    3.25E+00   2.24E+01   EDIIS        0.
   3   -89.271283129  -153.739222911    49.073693647  -6.59E-01*   1.61E-01*   3.08E-02*    9.91E-01   2.41E+01   EDIIS        0.
   4   -89.290181579  -153.618725205    48.934297490  -1.89E-02*   1.43E-01*   2.99E-02*    4.13E-01   2.40E+01   EDIIS        0.
   5   -89.298715408  -153.725388575    49.032427032  -8.53E-03*   3.77E-02*   5.76E-02*    3.14E-01   2.41E+01   c2DIIS       0.
   6   -89.302271955  -153.247246103    48.550728013  -3.56E-03*   1.50E-01*   2.60E-02*    1.84E-01   2.40E+01   QNRc2DIIS    0.
   7   -89.303853820  -153.883933124    49.185833168  -1.58E-03*   5.63E-02*   1.52E-02*    2.01E-01   2.41E+01   QNRc2DIIS    0.
   8   -89.304880487  -153.643720025    48.944593402  -1.03E-03*   1.62E-02*   1.26E-03*    8.29E-02   2.41E+01   QNRc2DIIS    0.
   9   -89.304897845  -153.634347904    48.935203924  -1.74E-05*   3.14E-03*   5.53E-04*    2.56E-02   2.40E+01   QNRc2DIIS    0.
  10   -89.304898806  -153.640077316    48.940932374  -9.62E-07*   6.20E-04    1.09E-04     5.93E-03   2.41E+01   QNRc2DIIS    0.
  11   -89.304898858  -153.637869637    48.938724643  -5.19E-08*   1.73E-04    3.13E-05     1.06E-03   2.41E+01   QNRc2DIIS    0.
  12   -89.304898863  -153.638376578    48.939231580  -4.44E-09*   2.03E-05    1.39E-06     2.59E-04   2.41E+01   QNRc2DIIS    0.
  13   -89.304898863  -153.638360018    48.939215020  -2.48E-11    4.28E-07    1.35E-07     3.36E-05   2.41E+01   QNRc2DIIS    0.
 
       Convergence after  13 Macro Iterations
--
 
 *****************************************************************************************************************************
 *                                                                                                                           *
 *                                             SCF/KS-DFT Program, Final results                                             *
 *                                                                                                                           *
 *                                                                                                                           *
 *                                                                                                                           *
 *                                                       Final Results                                                       *
 *                                                                                                                           *
 *****************************************************************************************************************************
 
::    Total SCF energy                                -89.3048988628
      One-electron energy                            -153.6383600183
      Two-electron energy                              48.9392150201
      Nuclear repulsion energy                         15.3942461354
      Kinetic energy (interpolated)                    91.2012299153
      Virial theorem                                    0.9792071768
      Total spin, S(S+1)                               -0.0000000000
      Total spin, S                                    -0.0000000000
      Max non-diagonal density matrix element           0.0000002306
      Max non-diagonal Fock matrix element              0.0000000219
 
 
      All orbitals with orbital energies smaller than  E(LUMO)+0.5 are printed
 
++    Molecular orbitals:
      -------------------
 
      Title: UHF orbitals (alpha)

      Molecular orbitals for symmetry species 1: a  
 
          Orbital            1         2         3         4         5         6         7         8         9    
          Energy          -20.4329   -4.8059   -1.2422   -0.4968   -0.4511   -0.4511   -0.0490    0.2472    0.2472
          Occ. No.          1.0000    1.0000    1.0000    1.0000    1.0000    1.0000    0.0000    0.0000    0.0000
 
        1 BE1    1s        -0.0007    0.9955   -0.1666    0.1735    0.0000   -0.0000   -0.0388   -0.0000    0.0000
        2 BE1    2s        -0.0013   -0.0006    0.0338   -0.0207    0.0000    0.0000   -0.8629    0.0000    0.0000
        3 BE1    2px        0.0000   -0.0000    0.0000    0.0000    0.0083    0.3695   -0.0000    0.0197   -1.0291
        4 BE1    2py        0.0000   -0.0000    0.0000   -0.0000    0.3695   -0.0083   -0.0000   -1.0291   -0.0197
        5 BE1    2pz       -0.0009   -0.0026    0.0928   -0.0944   -0.0000   -0.0000    0.5500    0.0000   -0.0000
        6 O2     1s         1.0002   -0.0024   -0.0117    0.0109    0.0000   -0.0000   -0.0004   -0.0000   -0.0000
        7 O2     2s         0.0021    0.0151    0.9124    0.2815    0.0000   -0.0000    0.0878   -0.0000   -0.0000
        8 O2     2px        0.0000   -0.0000   -0.0000    0.0000    0.0177    0.7913    0.0000   -0.0145    0.7546
        9 O2     2py        0.0000    0.0000   -0.0000   -0.0000    0.7913   -0.0177    0.0000    0.7546    0.0145
       10 O2     2pz       -0.0017   -0.0127   -0.2289    0.9814    0.0000   -0.0000   -0.1524   -0.0000    0.0000
--
 
 
      Input file to MOLDEN was generated!
 
 
++    Static properties:
      ------------------
 
 
      LoProp Charges per center
 

                   BE1      O2    
      Nuclear      4.0000   8.0000
      Electronic  -2.6298  -9.3702
 
      Total        1.3702  -1.3702
--
 
 
      All orbitals with orbital energies smaller than  E(LUMO)+0.5 are printed
 
++    Molecular orbitals:
      -------------------
 
      Title: UHF orbitals (beta)

      Molecular orbitals for symmetry species 1: a  
 
          Orbital            1         2         3         4         5         6         7         8         9    
          Energy          -20.4329   -4.8059   -1.2422   -0.4968   -0.4511   -0.4511   -0.0490    0.2472    0.2472
          Occ. No.          1.0000    1.0000    1.0000    1.0000    1.0000    1.0000    0.0000    0.0000    0.0000
 
        1 BE1    1s        -0.0007    0.9955   -0.1666    0.1735    0.0000   -0.0000   -0.0388   -0.0000    0.0000
        2 BE1    2s        -0.0013   -0.0006    0.0338   -0.0207    0.0000    0.0000   -0.8629    0.0000    0.0000
        3 BE1    2px        0.0000   -0.0000    0.0000    0.0000    0.0083    0.3695   -0.0000    0.0197   -1.0291
        4 BE1    2py        0.0000   -0.0000    0.0000   -0.0000    0.3695   -0.0083   -0.0000   -1.0291   -0.0197
        5 BE1    2pz       -0.0009   -0.0026    0.0928   -0.0944   -0.0000   -0.0000    0.5500    0.0000   -0.0000
        6 O2     1s         1.0002   -0.0024   -0.0117    0.0109    0.0000   -0.0000   -0.0004   -0.0000   -0.0000
        7 O2     2s         0.0021    0.0151    0.9124    0.2815    0.0000   -0.0000    0.0878   -0.0000   -0.0000
        8 O2     2px        0.0000   -0.0000   -0.0000    0.0000    0.0177    0.7913    0.0000   -0.0145    0.7546
        9 O2     2py        0.0000    0.0000   -0.0000   -0.0000    0.7913   -0.0177    0.0000    0.7546    0.0145
       10 O2     2pz       -0.0017   -0.0127   -0.2289    0.9814    0.0000   -0.0000   -0.1524   -0.0000    0.0000
--
 
 
++    Molecular charges:
      ------------------
 
      Mulliken charges per centre and basis function type
      ---------------------------------------------------
 
                            BE1                     O2    
                     alpha        beta       alpha        beta
      1s           0.9994      0.9994      1.0002      1.0002
      2s           0.0197      0.0197      0.9462      0.9462
      2px          0.2551      0.2551      0.7449      0.7449
      2pz          0.0508      0.0508      0.9836      0.9836
      2py          0.2551      0.2551      0.7449      0.7449
      Total        1.5801      1.5801      4.4199      4.4199
      Total              3.1602                  8.8398
 
      Charge            0.8398                 -0.8398
 
      Total electronic charge=   12.000000
 
      Total            charge=   -0.000000
--
 
 
      Input file to MOLDEN was generated!
 
 
++    Static properties:
      ------------------
 
 
      LoProp Charges per center
 

                   BE1      O2    
      Nuclear      4.0000   8.0000
      Electronic  -2.6298  -9.3702
 
      Total        1.3702  -1.3702
--
 
 
++    Natural Bond Order analysis
      ---------------------------
      Based on LoProp computed density
      -------------------------------------------------------------------------------------
      Atom A       Atom B       Bond Order
      -------------------------------------------------------------------------------------
      NBO located      0.952 non-bonded electrons on atom BE1       
      The remaining    5.525 electrons are to be considered as diffuse
--
 
 
++    Molecular orbitals:
      -------------------
 
      Title: Natural orbitals

      Molecular orbitals for symmetry species 1: a  
 
          Orbital            1         2         3         4         5         6         7         8         9        10    
          Energy          -20.4329   -4.8059   -1.2422   -0.4968   -0.4511   -0.4511   -0.0490    0.2472    0.2472    0.5026
          Occ. No.          2.0000    2.0000    2.0000    2.0000    2.0000    2.0000    0.0000    0.0000    0.0000    0.0000
 
        1 BE1    1s        -0.0007    0.9955   -0.1666    0.1735    0.0000   -0.0000   -0.0388   -0.0000    0.0000    0.2131
        2 BE1    2s        -0.0013   -0.0006    0.0338   -0.0208    0.0000    0.0000   -0.8629    0.0000    0.0000    0.9772
        3 BE1    2px        0.0000   -0.0000    0.0000    0.0000    0.0083    0.3696   -0.0000    0.0197   -1.0291    0.0000
        4 BE1    2py        0.0000   -0.0000    0.0000   -0.0000    0.3696   -0.0083   -0.0000   -1.0291   -0.0197    0.0000
        5 BE1    2pz       -0.0009   -0.0026    0.0928   -0.0944   -0.0000   -0.0000    0.5500    0.0000   -0.0000    1.2119
        6 O2     1s         1.0002   -0.0024   -0.0117    0.0109    0.0000   -0.0000   -0.0004   -0.0000   -0.0000   -0.1756
        7 O2     2s         0.0021    0.0151    0.9124    0.2815    0.0000   -0.0000    0.0878   -0.0000   -0.0000   -1.2156
        8 O2     2px        0.0000   -0.0000   -0.0000    0.0000    0.0177    0.7913    0.0000   -0.0145    0.7546   -0.0000
        9 O2     2py        0.0000    0.0000   -0.0000   -0.0000    0.7913   -0.0177    0.0000    0.7546    0.0145   -0.0000
       10 O2     2pz       -0.0017   -0.0127   -0.2289    0.9814    0.0000   -0.0000   -0.1525   -0.0000    0.0000    0.3438
--
 
 
++    Molecular properties:
      ---------------------
 
      Charge (e):
                      =   -0.0000
      Dipole Moment (Debye):
      Origin of the operator (Ang)=    0.0000    0.0000    0.0000
                   X= -3.3793E-13               Y= -1.4192E-13               Z= -6.0715E+00           Total=  6.0715E+00
      Quadrupole Moment (Debye*Ang):
      Origin of the operator (Ang)=    0.0000    0.0000    0.7036
                  XX= -1.1240E+01              XY= -1.6359E-14              XZ=  3.1322E-13              YY= -1.1240E+01
                  YZ=  5.8479E-14              ZZ= -6.1839E+00
      In traceless form (Debye*Ang)
                  XX= -2.5282E+00              XY= -2.4539E-14              XZ=  4.6983E-13              YY= -2.5282E+00
                  YZ=  8.7718E-14              ZZ=  5.0564E+00
--
 
 
      Input file to MOLDEN was generated!
 
 ###############################################################################
 ###############################################################################
 ###                                                                         ###
 ###                                                                         ###
 ###    WARNING: RunFile label nBas                                          ###
 ###    was used       87 times                                              ###
 ###                                                                         ###
 ###                                                                         ###
 ###############################################################################
 ###############################################################################
--- Stop Module: scf at Thu Apr 25 13:45:44 2024 /rc=_RC_ALL_IS_WELL_ ---
*** files: 1.10.LprOrb 1.10.LoProp.molden 1.10.scf.molden 1.10.scf.h5 1.10.UhfOrb 1.10.UnaOrb xmldump
    saved to directory /home/grierjones/DDCASPT2/delta_ML/BeO/1.10

*** symbolic link created: INPORB -> 1.10.UnaOrb
--- Start Module: mbpt2 at Thu Apr 25 13:45:44 2024 ---
 
()()()()()()()()()()()()()()()()()()()()()()()()()()()()()()()()()()()()()()()()()()()()()()()()()()

                                               &MBPT2

                                   only a single process is used
                       available to each process: 2.0 GB of memory, 1 thread?
                                            pid: 102597
()()()()()()()()()()()()()()()()()()()()()()()()()()()()()()()()()()()()()()()()()()()()()()()()()()
 
 
 ###############################################################################
 ###############################################################################
 ###                                                                         ###
 ###                                                                         ###
 ###    WARNING: MP2 implementation intended for RHF references only         ###
 ###                                                                         ###
 ###                                                                         ###
 ###############################################################################
 ###############################################################################
MBPT2 WARNING: Reference function according to RunFile:UHF-SCF 
I'll assume you know what you're doing and continue
 
 
WARNING!
Default frozen orbitals as non valence orbitals is overwritten by user input.
Default values:   2
 
 
      Cartesian coordinates in Angstrom:
      -----------------------------------------------------
      No.  Label        X            Y            Z        
      -----------------------------------------------------
       1   BE1        0.00000000   0.00000000   0.00000000
       2   O2         0.00000000   0.00000000   1.10000000
      -----------------------------------------------------
      Nuclear repulsion energy =   15.39424614
 
      Contents of RUNFILE file:
      -------------------------
 
      Symmetry species                           1
                                                 a
      Number of basis functions                 10
      Frozen occupied orbitals                   0
      Active occupied orbitals                   6
      Active external orbitals                   4
      Deleted external orbitals                  0
 
 
      Energies of the active occupied orbitals
 
      symmetry species 1                   -20.432894     -4.805892     -1.242198     -0.496828     -0.451077
                                            -0.451077
 
 
      Energies of the active external orbitals
 
      symmetry species 1                    -0.048963      0.247189      0.247189      0.502568
 
 
      ********************************************************************************************************
      *                                               Results                                                *
      ********************************************************************************************************
 
 Conventional algorithm used...

       SCF energy                           =      -89.3048988628 a.u.
       Second-order correlation energy      =       -0.0783823506 a.u.

       Total energy                         =      -89.3832812134 a.u.
       Reference weight ( Cref**2 )         =        0.95214
 
::    Total MBPT2 energy                              -89.3832812134
 
 
       Zeroth-order energy (E0)             =      -40.3656838427 a.u.
 
       Shanks-type energy S1(E)             =      -89.3834069541 a.u.
 
 


       Data processing and timing information:

       Section                                              time(sec)
                                                          CPU  Elapsed

      Input data processing                              0.02      0.04
      Transformation of integrals                        0.00      0.00
      MBPT2 calculations (BJAI)                          0.00      0.00
      Total MBPT2 calculations                           0.02      0.04
 
 
--- Stop Module: mbpt2 at Thu Apr 25 13:45:44 2024 /rc=_RC_ALL_IS_WELL_ ---
*** files: xmldump
    saved to directory /home/grierjones/DDCASPT2/delta_ML/BeO/1.10

*** symbolic link created: INPORB -> 1.10.UnaOrb
--- Start Module: rasscf at Thu Apr 25 13:45:44 2024 ---
 
()()()()()()()()()()()()()()()()()()()()()()()()()()()()()()()()()()()()()()()()()()()()()()()()()()

                                              &RASSCF

                                   only a single process is used
                       available to each process: 2.0 GB of memory, 1 thread?
                                            pid: 102600
()()()()()()()()()()()()()()()()()()()()()()()()()()()()()()()()()()()()()()()()()()()()()()()()()()
 
 
      Header of the ONEINT file:
      --------------------------
      
      Integrals generated by Gateway/Seward, Thu Apr 25 13:45:42 2024
 
 
      OrdInt status: non-squared
 
 
      Cartesian coordinates in Angstrom:
      -----------------------------------------------------
      No.  Label        X            Y            Z        
      -----------------------------------------------------
       1   BE1        0.00000000   0.00000000   0.00000000
       2   O2         0.00000000   0.00000000   1.10000000
      -----------------------------------------------------
      Nuclear repulsion energy =   15.39424614
 
++    Wave function specifications:
      -----------------------------
 
      Number of closed shell electrons          10
      Number of electrons in active shells       2
      Max number of holes in RAS1 space          0
      Max nr of electrons in RAS3 space          0
      Number of inactive orbitals                5
      Number of active orbitals                  2
      Number of secondary orbitals               3
      Spin quantum number                      0.0
      State symmetry                             1
--
 
++    Orbital specifications:
      -----------------------
 
      Symmetry species                           1
                                                 a
      Frozen orbitals                            0
      Inactive orbitals                          5
      Active orbitals                            2
      RAS1 orbitals                              0
      RAS2 orbitals                              2
      RAS3 orbitals                              0
      Secondary orbitals                         3
      Deleted orbitals                           0
      Number of basis functions                 10
--
 
++    CI expansion specifications:
      ----------------------------
 
      Number of CSFs                             3
      Number of determinants                     3
      Number of root(s) required                 1
      Root chosen for geometry opt.              1
      CI root used                               1
         
      highest root included in the CI            1
      max. size of the explicit Hamiltonian      3
--
 
++    Optimization specifications:
      ----------------------------
 
      RASSCF algorithm: Conventional
      Maximum number of macro iterations       200
      Maximum number of SX iterations          100
      Threshold for RASSCF energy            1.000E-08
      Threshold for max MO rotation          1.000E-01
      Threshold for max BLB element          1.000E-04
      Level shift parameter                  5.000E-01
      Make Quasi-Newton update
--
 
      The MO-coefficients are taken from the file:
      /home/grierjones/DDCASPT2/delta_ML/BeO/1.00/1.00.RasOrb                                                                                                                                                                                                         
      Title: RASSCF average (pseudo-natural) orbitals                                      
 
      Total molecular charge    0.00
 
      ************************************************************************************************************************
      *                                                                                                                      *
      *                                            Wave function control section                                             *
      *                                                                                                                      *
      ************************************************************************************************************************
 
 
                                         RASSCF iterations: Energy and convergence statistics
                                         ----------------------------------------------------
 
      Iter CI   SX   CI       RASSCF       Energy    max ROT     max BLB   max BLB  Level Ln srch  Step   QN   Walltime
          iter iter root      energy       change     param      element    value   shift minimum  type update hh:mm:ss
 Nr of preliminary CI iterations:   1
        1   1    6    1   -89.29587997    0.00E+00   1.61E-02    3  10 1  3.39E-02*  0.16   0.00    SX    NO    0:00:00
        2   1    6    1   -89.29759655   -1.72E-03* -2.51E-03    3   7 1 -3.87E-03*  0.15   0.00    SX    NO    0:00:00
        3   1    5    1   -89.29761986   -2.33E-05*  1.06E-03    4   9 1  2.08E-03*  0.16   0.00    SX    NO    0:00:00
        4   1    5    1   -89.29762978   -9.91E-06* -5.89E-04    3   6 1 -5.03E-04*  0.16   0.00    SX    NO    0:00:00
        5   1    5    1   -89.29763100   -1.22E-06* -7.28E-04    5   8 1  3.50E-04*  0.16   1.65    QN   YES    0:00:00
        6   1    4    1   -89.29763147   -4.72E-07*  2.24E-04    5   8 1 -2.09E-04*  0.16   0.74    QN   YES    0:00:00
        7   1    3    1   -89.29763153   -6.24E-08* -3.88E-05    5   8 1  1.10E-04*  0.16   0.69    QN   YES    0:00:00
        8   1    3    1   -89.29763154   -7.65E-09  -5.83E-05    4   9 1  5.34E-06   0.16   2.50    LS   YES    0:00:00
      Convergence after  8 iterations
        9   1    3    1   -89.29763153    1.02E-08* -5.83E-05    5   8 1 -9.10E-05   0.16   2.50    LS   YES    0:00:00
 
      ************************************************************************************************************************
                                                      Wave function printout:
                       occupation of active orbitals, and spin coupling of open shells (u,d: Spin up or down)
      ************************************************************************************************************************
 
      Note: transformation to natural orbitals
      has been made, which may change the order of the CSFs.
 
      printout of CI-coefficients larger than  0.05 for root  1
      energy=     -89.297632
      conf/sym  11     Coeff  Weight
             1  20  -0.80592 0.64951
             3  02   0.59202 0.35049
 
      Natural orbitals and occupation numbers for root  1
      sym 1:   1.299013   0.700987
 
      ************************************************************************************************************************
      *                                                                                                                      *
      *                                                    Final results                                                     *
      *                                                                                                                      *
      ************************************************************************************************************************
 
 
++    Wave function specifications:
      -----------------------------
 
      Number of closed shell electrons          10
      Number of electrons in active shells       2
      Max number of holes in RAS1 space          0
      Max nr of electrons in RAS3 space          0
      Number of inactive orbitals                5
      Number of active orbitals                  2
      Number of secondary orbitals               3
      Spin quantum number                      0.0
      State symmetry                             1
--
 
++    Orbital specifications:
      -----------------------
 
      Symmetry species                           1
                                                 a
      Frozen orbitals                            0
      Inactive orbitals                          5
      Active orbitals                            2
      RAS1 orbitals                              0
      RAS2 orbitals                              2
      RAS3 orbitals                              0
      Secondary orbitals                         3
      Deleted orbitals                           0
      Number of basis functions                 10
--
 
++    CI expansion specifications:
      ----------------------------
 
      Number of CSFs                             3
      Number of determinants                     3
      Number of root(s) required                 1
      CI root used                               1
      highest root included in the CI            1
      Root passed to geometry opt.               1
--
 
++    Final optimization conditions:
      ------------------------------
 
      Average CI energy                             -89.29763153
      RASSCF energy for state  1                    -89.29763153
      Super-CI energy                                -0.00000000
      RASSCF energy change                            0.00000001
      Max change in MO coefficients               6.670E-05
      Max non-diagonal density matrix element    -5.825E-05
      Maximum BLB matrix element                 -9.096E-05
      (orbital pair   5,   8 in symmetry   1)
      Norm of electronic gradient            1.302E-04
--
 
 
      Final state energy(ies):
      ------------------------
 
::    RASSCF root number  1 Total energy:    -89.29763153
 
++    Molecular orbitals:
      -------------------
 
      Pseudonatural active orbitals and approximate occupation numbers
 
 
 
 
      Molecular orbitals for symmetry species 1: a  
 
 
      Orbital                 1         2         3         4         5         6         7         8         9        10
      Energy           -20.6323   -4.8060   -1.3703   -0.6145   -0.6145   -0.3074    0.0035    0.2075    0.2075    0.4592
      Occ. No.           2.0000    2.0000    2.0000    2.0000    2.0000    1.2990    0.7010    0.0000    0.0000    0.0000
 
     1 BE1    1s        -0.0006    0.9957   -0.1718   -0.0000   -0.0000    0.1157    0.1430    0.0000    0.0000   -0.2028
     2 BE1    2s        -0.0012   -0.0030   -0.0156    0.0000    0.0000   -0.5395    0.6974    0.0000   -0.0000   -0.9609
     3 BE1    2px        0.0000    0.0000    0.0000    0.0076    0.1654    0.0000   -0.0000   -0.0015   -1.0811    0.0000
     4 BE1    2py        0.0000    0.0000   -0.0000    0.1654   -0.0076   -0.0000    0.0000   -1.0811    0.0015   -0.0000
     5 BE1    2pz       -0.0007    0.0010    0.0653    0.0000    0.0000    0.2600   -0.4619   -0.0000    0.0000   -1.2262
     6 O2     1s         1.0001   -0.0025   -0.0056   -0.0000   -0.0000    0.0079    0.0022    0.0000    0.0000    0.1762
     7 O2     2s         0.0016    0.0168    0.9576   -0.0000   -0.0000    0.2431    0.0729   -0.0000    0.0000    1.1898
     8 O2     2px       -0.0000   -0.0000   -0.0000    0.0424    0.9205    0.0000    0.0000    0.0008    0.5891    0.0000
     9 O2     2py       -0.0000   -0.0000    0.0000    0.9205   -0.0424    0.0000    0.0000    0.5891   -0.0008    0.0000
    10 O2     2pz       -0.0012   -0.0109   -0.2182   -0.0000   -0.0000    0.6942    0.7261   -0.0000   -0.0000   -0.3165
--
 
      Von Neumann Entropy (Root   1) =  0.93451
 

      Mulliken population analysis for root number:  1
      -----------------------------------------------
 
 
++    Molecular charges:
      ------------------
 
      Mulliken charges per centre and basis function type
      ---------------------------------------------------
 
                BE1     O2    
      1s       1.9982  2.0003
      2s       0.6689  1.9102
      2px      0.1784  1.8216
      2pz      0.3491  1.0734
      2py      0.1784  1.8216
      Total    3.3729  8.6271
 
      N-E      0.6271 -0.6271
 
      Total electronic charge=   12.000000
 
      Total            charge=   -0.000000
--
 
 

      Expectation values of various properties for root number:  1
      -----------------------------------------------------------
 
 
++    Molecular properties:
      ---------------------
 
      Charge (e):
                      =   -0.0000
      Dipole Moment (Debye):
      Origin of the operator (Ang)=    0.0000    0.0000    0.0000
                   X= -1.8525E-14               Y= -4.0623E-13               Z= -2.8452E-01           Total=  2.8452E-01
      Quadrupole Moment (Debye*Ang):
      Origin of the operator (Ang)=    0.0000    0.0000    0.7036
                  XX= -1.1218E+01              XY= -1.2420E-14              XZ=  3.1952E-13              YY= -1.1218E+01
                  YZ=  6.8203E-13              ZZ= -1.2691E+01
      In traceless form (Debye*Ang)
                  XX=  7.3631E-01              XY= -1.8630E-14              XZ=  4.7928E-13              YY=  7.3631E-01
                  YZ=  1.0230E-12              ZZ= -1.4726E+00
--
 

      LoProp population analysis for root number:  1
      -----------------------------------------------
 
 
++    LoProp analysis:
      ----------------
 
 
 
      Input file to MOLDEN was generated!
 
 
++    Static properties:
      ------------------
 
 
      LoProp Charges per center
 

                   BE1      O2    
      Nuclear      4.0000   8.0000
      Electronic  -3.1062  -8.8938
 
      Total        0.8938  -0.8938
--
 
 
      Natural Bond Order analysis for root number:  1
 
++    Natural Bond Order analysis
      ---------------------------
      Based on LoProp computed density
      -------------------------------------------------------------------------------------
      Atom A       Atom B       Bond Order
      -------------------------------------------------------------------------------------
      NBO located      0.963 non-bonded electrons on atom BE1       
      The remaining    5.261 electrons are to be considered as diffuse
--
 
--
 
 
      Input file to MOLDEN was generated!
 
      Average orbitals are written to the RASORB file
      Natural orbitals for root   1 are written to the RASORB.1 file
      Spin density orbitals for root   1 are written to the SPDORB.1 file
 
--- Stop Module: rasscf at Thu Apr 25 13:45:44 2024 /rc=_RC_ALL_IS_WELL_ ---
*** files: 1.10.LprOrb 1.10.rasscf.molden 1.10.LoProp.molden 1.10.RasOrb 1.10.RasOrb.1 1.10.rasscf.h5 1.10.SpdOrb.1 xmldump
    saved to directory /home/grierjones/DDCASPT2/delta_ML/BeO/1.10

*** symbolic link created: INPORB -> 1.10.RasOrb
--- Start Module: caspt2 at Thu Apr 25 13:45:44 2024 ---
 
()()()()()()()()()()()()()()()()()()()()()()()()()()()()()()()()()()()()()()()()()()()()()()()()()()

                                              &CASPT2

                                   only a single process is used
                       available to each process: 2.0 GB of memory, 1 thread?
                                            pid: 102603
()()()()()()()()()()()()()()()()()()()()()()()()()()()()()()()()()()()()()()()()()()()()()()()()()()
 
 ###############################################################################
 ###############################################################################
 ###                                                                         ###
 ###                                                                         ###
 ###    WARNING: User changed nr of frozen orbitals.                         ###
 ###                                                                         ###
 ###                                                                         ###
 ###############################################################################
 ###############################################################################
 
++    Wave function specifications:
      -----------------------------
 
      Number of closed shell electrons          10
      Number of electrons in active shells       2
      Max number of holes in RAS1 space          0
      Max number of electrons in RAS3 space      0
      Number of inactive orbitals                5
      Number of active orbitals                  2
      Number of secondary orbitals               3
      Spin quantum number                      0.0
      State symmetry                             1
      Number of CSFs                             3
      Number of CASSCF root(s) available         1
      CASPT2 state passed to geometry opt.       1
      A file JOBMIX will be created
      This is a CASSCF or RASSCF reference function
--
 
++    Orbital specifications:
      -----------------------
 
      Symmetry species                           1
                                                 a
      Frozen orbitals                            0
      Inactive orbitals                          5
      Active orbitals                            2
      Secondary orbitals                         3
      Deleted orbitals                           0
      Number of basis functions                 10
--
 
++    CASPT2 specifications:
      ----------------------
 
      Type of calculation                        SS-CASPT2
      Fock operator                              state-specific
      IPEA shift                                 0.25
      Real shift                                 0.00
      Imaginary shift                            0.00
      The input orbitals will be transformed to quasi-canonical
--
 
--------------------------------------------------------------------------------
 Estimated memory requirements:
  POLY3 :                   250070
  RHS:                      250476
  SIGMA :                   250480
  PRPCTL:                        0
 Available workspace:    230392690
 
++ CASPT2 computation for group   1
 
********************************************************************************
 Multi-State initialization phase begins for group   1
--------------------------------------------------------------------------------
********************************************************************************
 Compute H0 matrices for state    1
--------------------------------------------------------------------------------
--------------------------------------------------------------------------------
 H0 matrices have been computed.
 
********************************************************************************
  CASPT2 EQUATION SOLUTION
--------------------------------------------------------------------------------
 
  Total nr of CASPT2 parameters:
   Before reduction:         620
   After  reduction:         457
 
 Variance of |WF0>:       0.0714725263
 
 The contributions to the second order correlation energy in atomic units.
-----------------------------------------------------------------------------------------------------------------------------
  IT.      VJTU        VJTI        ATVX        AIVX        VJAI        BVAT        BJAT        BJAI        TOTAL       RNORM  
-----------------------------------------------------------------------------------------------------------------------------
   1    -0.000000   -0.000084    0.000000   -0.008264   -0.001003   -0.000432   -0.001188   -0.027116   -0.038085    0.000062
-----------------------------------------------------------------------------------------------------------------------------
 
  FINAL CASPT2 RESULT:
 
      Reference energy:         -89.2976315311
      E2 (Non-variational):      -0.0380896249
      E2 (Variational):          -0.0380896184
      Total energy:             -89.3357211496
      Residual norm:              0.0000008933
      Reference weight:           0.97590
 
      Contributions to the CASPT2 correlation energy
      Active & Virtual Only:         -0.0004317989
      One Inactive Excited:          -0.0094544270
      Two Inactive Excited:          -0.0282033990
 
 
++ Denominators, etc.
--------------------------------------------------------------------------------------------------------------
 Report on small energy denominators, large coefficients, and large energy contributions.
CASE  SYMM ACTIVE-MIX  NON-ACTIVE INDICES          DENOMINATOR     RHS VALUE       COEFFICIENT     CONTRIBUTION
AIVX     1  Mu1.0001  In1.004 Se1.008               0.72539345     -0.03230033      0.04516661     -0.00145890
AIVX     1  Mu1.0003  In1.004 Se1.008               1.00518466     -0.04669588      0.04642131     -0.00216768
AIVX     1  Mu1.0001  In1.005 Se1.009               0.72539345     -0.03230033      0.04516661     -0.00145890
AIVX     1  Mu1.0003  In1.005 Se1.009               1.00518466     -0.04669588      0.04642131     -0.00216768
BJAIP    1  Se1.008 In1.003 Se1.010 In1.004         2.65151760      0.07370960     -0.02785864     -0.00205345
BJAIP    1  Se1.008 In1.004 Se1.008 In1.004         1.64406987      0.08026584     -0.04882166     -0.00391871
BJAIP    1  Se1.009 In1.003 Se1.010 In1.005         2.65151760      0.07370960     -0.02785864     -0.00205345
BJAIP    1  Se1.008 In1.004 Se1.009 In1.005         1.64406987      0.07262611     -0.04417482     -0.00320824
BJAIP    1  Se1.009 In1.005 Se1.009 In1.005         1.64406987      0.08026584     -0.04882166     -0.00391871
BJAIM    1  Se1.008 In1.003 Se1.009 In1.004         2.65151760     -0.07061365      0.02671280     -0.00188629
BJAIM    1  Se1.009 In1.003 Se1.009 In1.005         2.65151760     -0.07061365      0.02671280     -0.00188629
BJAIM    1  Se1.008 In1.004 Se1.008 In1.005         1.64406987      0.09999182     -0.06082008     -0.00608151
--
 
   (Skipping property calculation,
    use PROP keyword to activate)
--
 
  Total CASPT2 energies:
::    CASPT2 Root  1     Total energy:    -89.33572115
 
  A NEW JOBIPH FILE NAMED 'JOBMIX' IS PREPARED.
********************************************************************************
--- Stop Module: caspt2 at Thu Apr 25 13:45:44 2024 /rc=_RC_ALL_IS_WELL_ ---
*** files: xmldump
    saved to directory /home/grierjones/DDCASPT2/delta_ML/BeO/1.10

.##################.
.# Happy landing! #.
.##################.

    Timing: Wall=2.46 User=1.56 System=0.25
************************************
*** WorkDir at /tmp/1.10 removed ***
************************************
