[Molden Format]
[N_Atoms]
                     2
[Atoms] (AU)
N1          1      7           0.00000000      0.00000000      0.00000000
O2          2      8           0.00000000      0.00000000      4.91328792
[Charge] (Mulliken)
  4.518051166872272E-002
 -4.518051166876802E-002
[GTO] (AU)
   1
   s  14
  7.476171500E+04  1.182599996E-04
  1.112365400E+04  5.172899983E-04
  2.512685700E+03  2.266659992E-03
  7.037772900E+02  9.145289970E-03
  2.254787900E+02  3.239342989E-02
  7.961581000E+01  9.770792967E-02
  3.023728300E+01  2.317036792E-01
  1.226362200E+01  3.768898887E-01
  5.265086000E+00  3.177420689E-01
  2.333471000E+00  8.211308973E-02
  9.018560000E-01  3.312089989E-03
  3.583360000E-01  3.720819988E-03
  1.410930000E-01  3.165419989E-03
  4.938300000E-02  4.595799985E-04
   s  14
  7.476171500E+04 -2.707000010E-05
  1.112365400E+04 -1.183700004E-04
  2.512685700E+03 -5.203800020E-04
  7.037772900E+02 -2.102930008E-03
  2.254787900E+02 -7.568200028E-03
  7.961581000E+01 -2.346767009E-02
  3.023728300E+01 -6.042901023E-02
  1.226362200E+01 -1.170549104E-01
  5.265086000E+00 -1.555321506E-01
  2.333471000E+00 -2.468935009E-02
  9.018560000E-01  3.625054514E-01
  3.583360000E-01  5.550845021E-01
  1.410930000E-01  2.148376908E-01
  4.938300000E-02  8.983850034E-03
   p   9
  1.266665700E+02  1.233630000E-03
  2.983738900E+01  9.493409996E-03
  9.394038000E+00  4.293961998E-02
  3.405104000E+00  1.362925399E-01
  1.350000000E+00  2.921362499E-01
  5.576960000E-01  3.887887598E-01
  2.324490000E-01  2.946801399E-01
  9.426400000E-02  8.012875997E-02
  3.299200000E-02  5.405199998E-04
 
   2
   s  14
  1.053749500E+05  1.238600013E-04
  1.567924000E+04  5.120100053E-04
  3.534544700E+03  2.152910022E-03
  9.873651600E+02  8.528440089E-03
  3.159787500E+02  3.018049031E-02
  1.116542800E+02  9.099702095E-02
  4.269945100E+01  2.177936423E-01
  1.739559600E+01  3.686245738E-01
  7.438309000E+00  3.366707335E-01
  3.222862000E+00  9.657630101E-02
  1.253877000E+00  2.144520022E-03
  4.951550000E-01  1.194350012E-03
  1.916650000E-01  5.390200056E-04
  6.708300000E-02  2.103400022E-04
   s  14
  1.053749500E+05 -2.815000008E-05
  1.567924000E+04 -1.163000003E-04
  3.534544700E+03 -4.909200013E-04
  9.873651600E+02 -1.946160005E-03
  3.159787500E+02 -7.005300019E-03
  1.116542800E+02 -2.167814006E-02
  4.269945100E+01 -5.641213015E-02
  1.739559600E+01 -1.127053003E-01
  7.438309000E+00 -1.589119704E-01
  3.222862000E+00 -3.355083009E-02
  1.253877000E+00  3.531902810E-01
  4.951550000E-01  5.534199315E-01
  1.916650000E-01  2.301839106E-01
  6.708300000E-02  1.127267003E-02
   p   9
  2.000000000E+02  9.173000030E-04
  4.653336700E+01  7.377140024E-03
  1.462180900E+01  3.483515011E-02
  5.313064000E+00  1.144397004E-01
  2.102525000E+00  2.554966408E-01
  8.502230000E-01  3.722557412E-01
  3.375970000E-01  3.323314911E-01
  1.288920000E-01  1.400847905E-01
  4.511200000E-02  2.395784008E-02
 
[MO]
Sym=     1a  
Ene=   -20.6820
Spin= Alpha
Occup=    1.00000
   1        -0.00000490
   2        -0.00006625
   3         0.00000000
   4         0.00000000
   5        -0.00007072
   6         1.00000026
   7        -0.00024555
   8         0.00000000
   9        -0.00000000
  10        -0.00005342
Sym=     1a  
Ene=   -20.6820
Spin= Beta
Occup=    1.00000
   1        -0.00000394
   2        -0.00006303
   3         0.00000000
   4         0.00000000
   5        -0.00006620
   6         1.00000025
   7        -0.00023308
   8         0.00000000
   9        -0.00000000
  10        -0.00004994
Sym=     2a  
Ene=   -15.6180
Spin= Alpha
Occup=    1.00000
   1         0.99999047
   2        -0.00465425
   3         0.00000000
   4        -0.00000000
   5         0.00011147
   6        -0.00001619
   7        -0.00021875
   8        -0.00000000
   9         0.00000000
  10         0.00025665
Sym=     2a  
Ene=   -15.5860
Spin= Beta
Occup=    1.00000
   1         0.99997695
   2        -0.00690717
   3         0.00000000
   4         0.00000000
   5         0.00009562
   6        -0.00001470
   7        -0.00016517
   8        -0.00000000
   9         0.00000000
  10         0.00015942
Sym=     3a  
Ene=    -1.2374
Spin= Alpha
Occup=    1.00000
   1        -0.00047821
   2         0.03797296
   3         0.00000000
   4         0.00000000
   5         0.01259778
   6         0.00017148
   7         0.99750666
   8        -0.00000000
   9        -0.00000000
  10         0.00192868
Sym=     3a  
Ene=    -1.2385
Spin= Beta
Occup=    1.00000
   1        -0.00048654
   2         0.02204317
   3         0.00000000
   4        -0.00000000
   5         0.01256923
   6         0.00017565
   7         0.99841625
   8         0.00000000
   9         0.00000000
  10         0.00400567
Sym=     4a  
Ene=    -1.0192
Spin= Alpha
Occup=    1.00000
   1         0.00466386
   2         0.99876135
   3        -0.00000000
   4        -0.00000000
   5         0.00854109
   6        -0.00108961
   7        -0.06551591
   8        -0.00000000
   9        -0.00000000
  10        -0.01173469
Sym=     4a  
Ene=    -0.8781
Spin= Beta
Occup=    1.00000
   1         0.00684607
   2         0.99831973
   3        -0.00000000
   4        -0.00000000
   5         0.00684751
   6        -0.00108297
   7        -0.04927115
   8         0.00000000
   9         0.00000000
  10        -0.02271585
Sym=     5a  
Ene=    -0.5629
Spin= Alpha
Occup=    1.00000
   1         0.00000000
   2         0.00000000
   3         0.29536531
   4         0.10245869
   5        -0.00000000
   6         0.00000000
   7         0.00000000
   8         0.89053848
   9         0.30891714
  10         0.00000000
Sym=     5a  
Ene=    -0.5609
Spin= Beta
Occup=    1.00000
   1        -0.00000000
   2        -0.00000000
   3        -0.00274197
   4         0.00790448
   5         0.00000000
   6        -0.00000000
   7        -0.00000000
   8        -0.32765437
   9         0.94455369
  10        -0.00000000
Sym=     6a  
Ene=    -0.5606
Spin= Alpha
Occup=    1.00000
   1         0.00000000
   2         0.00000000
   3        -0.00311912
   4         0.00899172
   5        -0.00000000
   6         0.00000000
   7         0.00000000
   8        -0.32764218
   9         0.94451856
  10         0.00000000
Sym=     6a  
Ene=    -0.5605
Spin= Beta
Occup=    1.00000
   1        -0.00000000
   2        -0.00000000
   3         0.00611676
   4         0.00212183
   5         0.00000000
   6        -0.00000000
   7        -0.00000000
   8         0.94460873
   9         0.32767346
  10        -0.00000000
Sym=     7a  
Ene=    -0.5388
Spin= Alpha
Occup=    1.00000
   1        -0.00000000
   2        -0.00000000
   3         0.89768600
   4         0.31139653
   5         0.00000000
   6        -0.00000000
   7        -0.00000000
   8        -0.31626262
   9        -0.10970771
  10        -0.00000000
Sym=     7a  
Ene=    -0.4276
Spin= Beta
Occup=    1.00000
   1        -0.00069721
   2        -0.01867737
   3         0.00000000
   4        -0.00000000
   5         0.98299422
   6        -0.00307257
   7        -0.06291296
   8        -0.00000000
   9        -0.00000000
  10        -0.12628134
Sym=     8a  
Ene=    -0.4681
Spin= Alpha
Occup=    1.00000
   1        -0.00052970
   2        -0.01606199
   3        -0.00000000
   4         0.00000000
   5         0.98859259
   6        -0.00308815
   7        -0.06367574
   8         0.00000000
   9         0.00000000
  10        -0.09735837
Sym=     8a  
Ene=     0.0436
Spin= Beta
Occup=    0.00000
   1         0.00484265
   2         0.08764826
   3         0.00000000
   4        -0.00000000
   5         0.20770290
   6        -0.00070568
   7        -0.01933601
   8         0.00000000
   9         0.00000000
  10         0.99738136
Sym=     9a  
Ene=     0.0466
Spin= Alpha
Occup=    0.00000
   1         0.00466361
   2         0.07720836
   3        -0.00000000
   4         0.00000000
   5         0.17909788
   6        -0.00060033
   7        -0.01510181
   8        -0.00000000
   9        -0.00000000
  10         1.00081392
Sym=     9a  
Ene=     0.1139
Spin= Beta
Occup=    0.00000
   1         0.00000000
   2         0.00000000
   3        -0.32780796
   4         0.94499648
   5         0.00000000
   6        -0.00000000
   7        -0.00000000
   8         0.01040175
   9        -0.02998589
  10         0.00000000
Sym=    10a  
Ene=     0.0765
Spin= Alpha
Occup=    0.00000
   1         0.00000000
   2         0.00000000
   3         0.32780459
   4        -0.94498676
   5         0.00000000
   6        -0.00000000
   7        -0.00000000
   8        -0.01077871
   9         0.03107260
  10         0.00000000
Sym=    10a  
Ene=     0.1875
Spin= Beta
Occup=    0.00000
   1         0.00000000
   2         0.00000000
   3         0.94500974
   4         0.32781256
   5        -0.00000000
   6        -0.00000000
   7        -0.00000000
   8        -0.02819897
   9        -0.00978188
  10         0.00000000
