   This run of MOLCAS is using the pymolcas driver

                             OPE
                             OPE          NMOL  CASOP  ENMOLC A   SO
                 OPE        NMOLC        AS  OP EN  MO LC     AS  OP
                OPENM       OL CA        SO  PE NM  OL CA     SOP EN
                OP EN      MO   LC       AS  OP ENMOL  CASO   PENMOL
                OP  EN     MO   LC       AS  OP EN     MO     LC ASO
               OP   E  NMOL  C  AS       OP  EN MO     LC     AS  OP
               OP  E   NMO   LC AS        OPEN  MO     LCASOP EN   M
               O  PEN   MO  LCA  SO
            OPE   NMO   L   CAS    OP
        OPENMOL  CASOP     ENMOL   CASOPE
     OPENMOLCA   SOPENMOLCASOPEN   MOLCASOPE
    OPENMOLCAS   OP           EN   MOL    CAS
    OPENMOLCAS       OP  ENM        O     LCA
    OPENMOLCAS    OPEN  MOLCASO     P  E  NMO
    OPENMOLCAS     OP               E  N  MOL
    OPENMOLCA   SO           PENM   O  L  CAS    OPEN    MO    LCAS
    OPENMOLCA   SOP           ENM   O  L  CAS   OP  EN  MOLC  AS   O
    OPENMOLCA   SOPE           NM      O  LCA   S      OP  EN MO
    OPENMOLC                AS         O  PEN   M      OL  CA  SOPE
    OPENMO        LCASOPE  NMOL        C  ASO   P      ENMOLC     AS
    OPE     NMO      LCA  SO     P     E   NM   OL  CA SO  PE N   MO
          OPENMOLCA            SOPE   NMO        LCAS  O    P  ENMO
     OPENMOLCASOPENMOLCASOPENMOLCASOPENMOLCA
        OPENMOLCASOPENMOLCASOPENMOLCASOPE
            OPENMOLCASOPENMOLCASOPENM
               OPENMOLCASOPENMOLCA        version: ea724fe96-dirty
                   OPENMOLCASO
                       OPE                tag:

 OpenMolcas is free software; you can redistribute it and/or modify it
 under the terms of the GNU Lesser General Public License version 2.1.
 OpenMolcas is distributed in the hope that it will be useful, but it
 is provided "as is" and without any express or implied warranties.
 For more details see the full text of the license in the file
 LICENSE or in <http://www.gnu.org/licenses/>.

                 Copyright (C) The OpenMolcas Authors
           For the author list and the recommended citation,
                   consult the file CONTRIBUTORS.md

           *************************************************
           * pymolcas version py2.28                       *
           *   build c4a6d18ded8cb6cad61d2372a9abd97c      *
           *   (after the EMIL interpreter by V. Veryazov) *
           *************************************************

configuration info
------------------
C Compiler ID: Intel
C flags: -std=gnu99
Fortran Compiler ID: Intel
Fortran flags: -fpp -i8 -r8 -heap-arrays
Definitions: _MOLCAS_;_I8_;_LINUX_
Parallel: OFF (GA=OFF)


   -------------------------------------------------------------------------------
  |
  |              Project: 2.37
  |       Submitted from: /home/grierjones/DDCASPT2/iron_oxo_DDCASPT2/cluster/2.37
  |         Scratch area: /tmp/2.37
  |      Save outputs to: /home/grierjones/DDCASPT2/iron_oxo_DDCASPT2/cluster/2.37
  |               Molcas: /home/grierjones/Test/build
  |
  | Scratch area is empty
  |
  |       MOLCAS_DRIVER = /usr/local/pymolcas
  | MOLCAS_KEEP_WORKDIR = NO
  |  MOLCAS_NEW_WORKDIR = YES
  |       MOLCAS_NPROCS = 1
  |        MOLCAS_PRINT = NORMAL
  |       MOLCAS_SOURCE = /home/grierjones/Test/build
  |    MOLCAS_STRUCTURE = 0
  |
   -------------------------------------------------------------------------------

++ ---------   Input file   ---------

&GATEWAY
coord=2.37.xyz
Basis = ANO-RCC-VDZP
Group = nosymm
Expert
End of Input

&SEWARD
End of Input

&SCF
UHF
charge
2
spin
5
FileOrb
/home/grierjones/DDCASPT2/iron_oxo_DDCASPT2/cluster/2.35/2.35.UhfOrb

>>> COPY $WorkDir/2.37.scf.h5 $CurrDir/

&RASSCF
Title= RASSCF
FileOrb
/home/grierjones/DDCASPT2/iron_oxo_DDCASPT2/cluster/2.35/2.35.RasOrb
NACTEL
10 0 0
RAS2
14
Symmetry
1
Spin
5
charge
2
orblisting
all
ITERation
300 200

>>> COPY $WorkDir/2.37.rasscf.h5 $CurrDir/

>>> COPY $WorkDir/GMJ_Fock_MO.csv $CurrDir/2.37.GMJ_Fock_MO.csv

>>> COPY $WorkDir/GMJ_PT2_Fock_MO.csv $CurrDir/2.37.GMJ_PT2_Fock_MO.csv

&MOTRA
Frozen=0
LUMORB

>>> COPY $WorkDir/GMJ_one_int_indx.csv $CurrDir/2.37.GMJ_one_int_indx.csv

>>> COPY $WorkDir/GMJ_one_int.csv $CurrDir/2.37.GMJ_one_int.csv

>>> COPY $WorkDir/GMJ_two_int_indx.csv $CurrDir/2.37.GMJ_two_int_indx.csv

>>> COPY $WorkDir/GMJ_two_int.csv $CurrDir/2.37.GMJ_two_int.csv

&CASPT2
Frozen
0
MAXITER
50

>>> FOREACH i IN (B,E,F,G,H)

  >>> FOREACH j IN (P,M)

    >>> IF (-FILE GMJ_e2_${i}_${j}.csv)

      >>> COPY $WorkDir/GMJ_RHS_${i}_${j}.csv $CurrDir/GMJ_RHS_${i}_${j}.csv

      >>> COPY $WorkDir/GMJ_IVECW_${i}_${j}.csv $CurrDir/GMJ_IVECW_${i}_${j}.csv

      >>> COPY $WorkDir/GMJ_IVECX_${i}_${j}.csv $CurrDir/GMJ_IVECX_${i}_${j}.csv

      >>> COPY $WorkDir/GMJ_IVECC2_${i}_${j}.csv $CurrDir/GMJ_IVECC2_${i}_${j}.csv

      >>> COPY $WorkDir/GMJ_e2_${i}_${j}.csv $CurrDir/GMJ_e2_${i}_${j}.csv

    >>> END IF

  >>> END FOREACH

>>> END FOREACH

>>> FOREACH i IN (A,C,D)

  >>> IF (-FILE GMJ_e2_$i.csv)

    >>> COPY $WorkDir/GMJ_RHS_$i.csv $CurrDir/GMJ_RHS_$i.csv

    >>> COPY $WorkDir/GMJ_IVECW_$i.csv $CurrDir/GMJ_IVECW_$i.csv

    >>> COPY $WorkDir/GMJ_IVECX_$i.csv $CurrDir/GMJ_IVECX_$i.csv

    >>> COPY $WorkDir/GMJ_IVECC2_$i.csv $CurrDir/GMJ_IVECC2_$i.csv

    >>> COPY $WorkDir/GMJ_e2_$i.csv $CurrDir/GMJ_e2_$i.csv

  >>> END IF

>>> END FOREACH

-- ----------------------------------

--- Start Module: gateway at Tue Dec 24 02:55:16 2024 ---
 
()()()()()()()()()()()()()()()()()()()()()()()()()()()()()()()()()()()()()()()()()()()()()()()()()()

                                              &GATEWAY

                                   only a single process is used
                       available to each process: 2.0 GB of memory, 1 thread?
()()()()()()()()()()()()()()()()()()()()()()()()()()()()()()()()()()()()()()()()()()()()()()()()()()
 
 ###############################################################################
 ###############################################################################
 ###                                                                         ###
 ###                                                                         ###
 ###                                                                         ###
 ###    WARNING: EXPERT option is ON!                                        ###
 ###                                                                         ###
 ###                                                                         ###
 ###############################################################################
 ###############################################################################
 
++    Symmetry information:
      ---------------------
 
                    Character Table for C1 
 
                             E  
                    a        1  x, y, xy, Rz, z, xz, Ry, yz, Rx, I
--
 
 
++    Basis set information:
      ----------------------
 
 
      Basis set label: O.ANO-RCC...3S2P1D.
 
      Electronic valence basis set:
      ------------------
      Associated Effective Charge   8.000000 au
      Associated Actual Charge      8.000000 au
      Nuclear Model: Point charge
 
      Shell  nPrim  nBasis  Cartesian Spherical Contaminant
         s      14       3        X                  
         p       9       2        X                  
         d       4       1                 X         
 
 
      Basis set label: FE.ANO-RCC...5S4P2D1F.
 
      Electronic valence basis set:
      ------------------
      Associated Effective Charge  26.000000 au
      Associated Actual Charge     26.000000 au
      Nuclear Model: Point charge
 
      Shell  nPrim  nBasis  Cartesian Spherical Contaminant
         s      21       5        X                  
         p      15       4        X                  
         d      10       2                 X         
         f       6       1                 X         
--
 
 
++    Molecular structure info:
      -------------------------
 
                    ************************************************ 
                    **** Cartesian Coordinates / Bohr, Angstrom **** 
                    ************************************************ 
 
     Center  Label                x              y              z                     x              y              z
        1      O1               0.000000       0.000000       3.746892              0.000000       0.000000       1.982770
        2      FE2              0.000000       0.000000      -0.723330              0.000000       0.000000      -0.382770
--
 
 
            Nuclear Potential Energy             46.53011990 au
 
 ###############################################################################
 ###############################################################################
 ###                                                                         ###
 ###                                                                         ###
 ###    There were warnings during the execution                             ###
 ###    Please, check the output with care!                                  ###
 ###                                                                         ###
 ###                                                                         ###
 ###############################################################################
 ###############################################################################
--- Stop Module: gateway at Tue Dec 24 02:55:16 2024 /rc=_RC_ALL_IS_WELL_ ---
*** files: xmldump
    saved to directory /home/grierjones/DDCASPT2/iron_oxo_DDCASPT2/cluster/2.37

--- Start Module: seward at Tue Dec 24 02:55:16 2024 ---
 
()()()()()()()()()()()()()()()()()()()()()()()()()()()()()()()()()()()()()()()()()()()()()()()()()()

                                              &SEWARD

                                   only a single process is used
                       available to each process: 2.0 GB of memory, 1 thread?
()()()()()()()()()()()()()()()()()()()()()()()()()()()()()()()()()()()()()()()()()()()()()()()()()()
 
 ###############################################################################
 ###############################################################################
 ###                                                                         ###
 ###                                                                         ###
 ###                                                                         ###
 ###    WARNING: EXPERT option is ON!                                        ###
 ###                                                                         ###
 ###                                                                         ###
 ###############################################################################
 ###############################################################################
               SEWARD will generate:
                  Multipole Moment integrals up to order  2
                  Kinetic Energy integrals
                  Nuclear Attraction integrals (point charge)
                  One-Electron Hamiltonian integrals
                  Velocity integrals
                  Relativistic Douglas-Kroll-Hess integrals:
                    - Parametrization         : EXP
                    - DKH order of Hamiltonian: 2
                    - DKH order of Properties : 0
                         - multipole moment operators
                         - electric potential operators
                         - contact operators
                  Atomic mean-field integrals
                  Two-Electron Repulsion integrals
 
                   Integrals are discarded if absolute value <: 0.10E-13
                   Integral cutoff threshold is set to       <: 0.10E-15
 
            Nuclear Potential Energy             46.53011990 au
 
 
      Basis set specifications :
      Symmetry species         a  
      Basis functions           48
 
 
  Input file to MOLDEN was generated!
 
 ###############################################################################
 ###############################################################################
 ###                                                                         ###
 ###                                                                         ###
 ###    There were warnings during the execution                             ###
 ###    Please, check the output with care!                                  ###
 ###                                                                         ###
 ###                                                                         ###
 ###############################################################################
 ###############################################################################
--- Stop Module: seward at Tue Dec 24 02:55:17 2024 /rc=_RC_ALL_IS_WELL_ ---
*** files: 2.37.GssOrb 2.37.guessorb.h5 2.37.guessorb.molden xmldump
    saved to directory /home/grierjones/DDCASPT2/iron_oxo_DDCASPT2/cluster/2.37
--- Module seward spent 1 second ---

*** symbolic link created: INPORB -> 2.37.GssOrb
--- Start Module: scf at Tue Dec 24 02:55:17 2024 ---
 
()()()()()()()()()()()()()()()()()()()()()()()()()()()()()()()()()()()()()()()()()()()()()()()()()()

                                                &SCF

                                   only a single process is used
                       available to each process: 2.0 GB of memory, 1 thread?
()()()()()()()()()()()()()()()()()()()()()()()()()()()()()()()()()()()()()()()()()()()()()()()()()()
 
 *** Possible bug in opening file
 *** isFreeUnit resets the unit number
++    Input section:
      --------------
 
      Header of the integral files:
      
       Integrals generated by seward 4.2.0  , Tue Dec 24 02:55:16 2024
 
 
      Cartesian coordinates in Angstrom:
      -----------------------------------------------------
      No.  Label        X            Y            Z        
      -----------------------------------------------------
       1   O1         0.00000000   0.00000000   1.98277000
       2   FE2        0.00000000   0.00000000  -0.38277000
      -----------------------------------------------------
      Nuclear repulsion energy =   46.53011990
--
 
++    Orbital specifications:
      -----------------------
 
      Symmetry species               1
                                     a
      Frozen orbitals                0
      Occupied orbitals alpha       18
      Occupied orbitals beta        14
      Secondary orbitals alpha      30
      Secondary orbitals beta       34
      Deleted orbitals               0
      Total number of orbitals      48
      Number of basis functions     48
--
 
      Molecular charge                           2.000
 
++    Optimization specifications:
      ----------------------------
 
      SCF Algorithm: Conventional USCF
      D(i)-D(i-1) density differences are used
      Number of density matrices in core                5
      Maximum number of NDDO SCF iterations           400
      Maximum number of HF SCF iterations             400
      Threshold for SCF energy change            0.10E-08
      Threshold for density matrix               0.10E-03
      Threshold for Fock matrix                  0.15E-03
      Threshold for linear dependence            0.10E-08
      Threshold at which DIIS is turned on       0.15E+00
      Threshold at which QNR/C2DIIS is turned on 0.75E-01
      Threshold for Norm(delta) (QNR/C2DIIS)     0.20E-04
      DIIS extrapolation of the SCF procedure
      All orbitals punched on: UHFORB
--
 
      Input vectors read from INPORB
      Orbital file label: * UHF orbitals
 
 
++ Convergence information
                               UHF SCF        iterations: Energy and convergence statistics
 
Iter     Tot. SCF        One-elec.       Two-elec.     Energy      Max Dij or  Max Fij      DNorm      TNorm      AccCon     Time
         Energy          Energy          Energy        Change      Delta Norm                                                in Sec.
 
 The total and one-electron energies are shifted by a value of      1000. a.u.
 
   1  -345.185540245  -933.619380410   541.903720269   0.00E+00    0.62E-02*   0.86E-03*    0.81E+01   0.19E+03   None         0.
   2  -345.185548139  -933.678726507   541.963058472  -0.79E-05*   0.19E-02*   0.92E-03*    0.11E-01   0.19E+03   EDIIS        0.
   3  -345.185548687  -933.596950337   541.881281754  -0.55E-06*   0.12E-02*   0.35E-03*    0.63E-02   0.19E+03   c2DIIS       0.
   4  -345.185554000  -933.647728256   541.932054359  -0.53E-05*   0.44E-02*   0.42E-03*    0.35E-02   0.19E+03   QNRc2DIIS    0.
   5  -345.185555480  -933.687470493   541.971795118  -0.15E-05*   0.50E-02*   0.56E-03*    0.47E-02   0.19E+03   QNRc2DIIS    0.
   6  -345.185558244  -933.691606983   541.975928843  -0.28E-05*   0.51E-02*   0.25E-03*    0.58E-02   0.19E+03   QNRc2DIIS    0.
   7  -345.185559230  -933.701927367   541.986248240  -0.99E-06*   0.28E-03*   0.72E-04     0.60E-02   0.19E+03   QNRc2DIIS    0.
   8  -345.185559254  -933.701301765   541.985622615  -0.23E-07*   0.48E-03*   0.47E-04     0.36E-03   0.19E+03   QNRc2DIIS    0.
   9  -345.185559277  -933.701505738   541.985826565  -0.23E-07*   0.38E-03*   0.40E-04     0.64E-03   0.19E+03   QNRc2DIIS    0.
  10  -345.185559266  -933.701569812   541.985890650   0.11E-07*   0.42E-04*   0.13E-04     0.51E-03   0.19E+03   QNRc2DIIS    0.
  11  -345.185559267  -933.701563208   541.985884045  -0.64E-09    0.58E-04*   0.72E-05     0.69E-04   0.19E+03   QNRc2DIIS    0.
  12  -345.185559267  -933.701596298   541.985917135  -0.29E-09    0.37E-05    0.75E-06     0.90E-04   0.19E+03   QNRc2DIIS    0.
 
       Convergence after 12 Macro Iterations
--
 
 *****************************************************************************************************************************
 *                                                                                                                           *
 *                                             SCF/KS-DFT Program, Final results                                             *
 *                                                                                                                           *
 *                                                                                                                           *
 *                                                                                                                           *
 *                                                       Final Results                                                       *
 *                                                                                                                           *
 *****************************************************************************************************************************
 
::    Total SCF energy                              -1345.1855592669
      One-electron energy                           -1933.7015962976
      Two-electron energy                             541.9859171345
      Nuclear repulsion energy                         46.5301198962
      Kinetic energy (interpolated)                  1399.4353591734
      Virial theorem                                    0.9612345082
      Total spin, S(S+1)                                7.0822043882
      Total spin, S                                     2.2078043482
      Max non-diagonal density matrix element           0.0000010779
      Max non-diagonal Fock matrix element              0.0000001701
 
 
      All orbitals with orbital energies smaller than  E(LUMO)+0.5 are printed
 
++    Molecular orbitals:
      -------------------
 
      Title: UHF orbitals (alpha)

      Molecular orbitals for symmetry species 1: a  
 
          Orbital            1         2         3         4         5         6         7         8         9        10    
          Energy         -264.1992  -33.0061  -28.0846  -28.0846  -28.0648  -21.3836   -4.9368   -3.5056   -3.5056   -3.4579
          Occ. No.          1.0000    1.0000    1.0000    1.0000    1.0000    1.0000    1.0000    1.0000    1.0000    1.0000
 
        1 O1     1s         0.0000   -0.0000   -0.0000   -0.0000   -0.0000    1.0000   -0.0001    0.0000    0.0000   -0.0000
        2 O1     2s        -0.0000   -0.0001    0.0000    0.0000   -0.0001   -0.0000   -0.0004    0.0000    0.0000    0.0020
        3 O1     3s        -0.0000   -0.0000    0.0000    0.0000   -0.0000   -0.0012   -0.0004    0.0000    0.0000    0.0003
        4 O1     2px       -0.0000   -0.0000   -0.0000    0.0000    0.0000   -0.0000   -0.0000    0.0003   -0.0005   -0.0000
        5 O1     3px        0.0000   -0.0000   -0.0000    0.0001   -0.0000   -0.0000   -0.0000    0.0004   -0.0007   -0.0000
        6 O1     2py        0.0000    0.0000   -0.0000   -0.0000   -0.0000    0.0000    0.0000    0.0005    0.0003    0.0000
        7 O1     3py       -0.0000    0.0000   -0.0001   -0.0000    0.0000    0.0000    0.0000    0.0007    0.0004    0.0000
        8 O1     2pz        0.0000   -0.0000   -0.0000   -0.0000   -0.0000    0.0001    0.0001   -0.0000   -0.0000   -0.0013
        9 O1     3pz        0.0000   -0.0000   -0.0000   -0.0000   -0.0001    0.0003    0.0001   -0.0000   -0.0000   -0.0000
       10 O1     3d2-       0.0000    0.0000   -0.0000    0.0000   -0.0000   -0.0000    0.0000    0.0000   -0.0000   -0.0000
       11 O1     3d1-      -0.0000   -0.0000   -0.0000   -0.0000    0.0000   -0.0000   -0.0000   -0.0002   -0.0001   -0.0000
       12 O1     3d0       -0.0000    0.0000    0.0000    0.0000    0.0000   -0.0015    0.0001    0.0000    0.0000    0.0001
       13 O1     3d1+       0.0000    0.0000   -0.0000    0.0000   -0.0000    0.0000    0.0000   -0.0001    0.0002    0.0000
       14 O1     3d2+      -0.0000   -0.0000    0.0000    0.0000    0.0000    0.0000   -0.0000   -0.0000   -0.0000    0.0000
       15 FE2    1s         1.0000   -0.0000    0.0000    0.0000   -0.0000    0.0000   -0.0000   -0.0000   -0.0000   -0.0000
       16 FE2    2s         0.0000    1.0000   -0.0000   -0.0000   -0.0009    0.0000   -0.0028   -0.0000   -0.0000   -0.0001
       17 FE2    3s         0.0000    0.0028    0.0000    0.0000    0.0000    0.0001    1.0000   -0.0000   -0.0000   -0.0041
       18 FE2    4s         0.0000   -0.0002   -0.0000   -0.0000   -0.0000    0.0003    0.0022   -0.0000   -0.0000   -0.0000
       19 FE2    5s         0.0000    0.0003    0.0000    0.0000    0.0000   -0.0001   -0.0004    0.0000    0.0000   -0.0002
       20 FE2    2px        0.0000   -0.0000    0.5266   -0.8501    0.0000    0.0000    0.0000   -0.0014    0.0022   -0.0000
       21 FE2    3px       -0.0000   -0.0000    0.0014   -0.0022    0.0000    0.0000    0.0000    0.5263   -0.8502    0.0000
       22 FE2    4px        0.0000    0.0000   -0.0002    0.0003   -0.0000    0.0000    0.0000   -0.0033    0.0054    0.0000
       23 FE2    5px       -0.0000   -0.0000    0.0005   -0.0008    0.0000    0.0000   -0.0000    0.0015   -0.0024   -0.0000
       24 FE2    2py       -0.0000    0.0000    0.8501    0.5266   -0.0000   -0.0000   -0.0000   -0.0022   -0.0014    0.0000
       25 FE2    3py        0.0000    0.0000    0.0022    0.0014   -0.0000   -0.0000   -0.0000    0.8502    0.5263   -0.0000
       26 FE2    4py       -0.0000   -0.0000   -0.0003   -0.0002    0.0000   -0.0000   -0.0000   -0.0054   -0.0033   -0.0000
       27 FE2    5py        0.0000    0.0000    0.0008    0.0005   -0.0000   -0.0000    0.0000    0.0024    0.0015    0.0000
       28 FE2    2pz        0.0000    0.0009    0.0000    0.0000    1.0000    0.0000   -0.0000   -0.0000   -0.0000   -0.0023
       29 FE2    3pz       -0.0000    0.0000    0.0000    0.0000    0.0023    0.0001    0.0041    0.0000    0.0000    0.9999
       30 FE2    4pz        0.0000    0.0000   -0.0000   -0.0000   -0.0003    0.0004    0.0003   -0.0000   -0.0000   -0.0042
       31 FE2    5pz       -0.0000    0.0001    0.0000    0.0000    0.0007   -0.0000    0.0004    0.0000    0.0000    0.0015
       32 FE2    3d2-       0.0000    0.0000   -0.0000    0.0000   -0.0000    0.0000    0.0000   -0.0000    0.0000   -0.0000
       33 FE2    4d2-      -0.0000   -0.0000   -0.0000    0.0000    0.0000    0.0000   -0.0000   -0.0000    0.0000   -0.0000
       34 FE2    3d1-       0.0000    0.0000    0.0001    0.0000    0.0000   -0.0000    0.0000    0.0017    0.0011    0.0000
       35 FE2    4d1-      -0.0000   -0.0000   -0.0000   -0.0000   -0.0000   -0.0000   -0.0000   -0.0010   -0.0006   -0.0000
       36 FE2    3d0       -0.0000   -0.0003    0.0000    0.0000    0.0001    0.0001   -0.0084    0.0000    0.0000    0.0015
       37 FE2    4d0        0.0000    0.0003   -0.0000   -0.0000   -0.0000    0.0002    0.0033   -0.0000   -0.0000   -0.0001
       38 FE2    3d1+      -0.0000   -0.0000    0.0000   -0.0001   -0.0000    0.0000   -0.0000    0.0011   -0.0017   -0.0000
       39 FE2    4d1+       0.0000    0.0000   -0.0000    0.0000    0.0000    0.0000    0.0000   -0.0006    0.0010    0.0000
       40 FE2    3d2+      -0.0000   -0.0000    0.0000    0.0000    0.0000   -0.0000   -0.0000    0.0000    0.0000    0.0000
       41 FE2    4d2+       0.0000    0.0000    0.0000    0.0000   -0.0000   -0.0000    0.0000    0.0000    0.0000   -0.0000
       42 FE2    4f3-      -0.0000    0.0000    0.0000   -0.0000   -0.0000    0.0000    0.0000    0.0000   -0.0000   -0.0000
       43 FE2    4f2-      -0.0000    0.0000    0.0000   -0.0000    0.0000    0.0000    0.0000    0.0000   -0.0000    0.0000
       44 FE2    4f1-      -0.0000    0.0000   -0.0001   -0.0001   -0.0000   -0.0000    0.0000   -0.0045   -0.0028   -0.0000
       45 FE2    4f0        0.0000   -0.0000   -0.0000   -0.0000   -0.0001    0.0001   -0.0001   -0.0000   -0.0000   -0.0011
       46 FE2    4f1+       0.0000   -0.0000   -0.0001    0.0001    0.0000    0.0000   -0.0000   -0.0028    0.0045    0.0000
       47 FE2    4f2+      -0.0000    0.0000   -0.0000   -0.0000   -0.0000   -0.0000   -0.0000   -0.0000   -0.0000   -0.0000
       48 FE2    4f3+      -0.0000    0.0000   -0.0000   -0.0000   -0.0000    0.0000    0.0000   -0.0000   -0.0000   -0.0000
 
          Orbital           11        12        13        14        15        16        17        18        19        20    
          Energy           -1.9205   -1.2931   -1.2931   -1.2202   -1.2202   -1.1933   -1.1706   -1.1706   -0.5573   -0.4481
          Occ. No.          1.0000    1.0000    1.0000    1.0000    1.0000    1.0000    1.0000    1.0000    0.0000    0.0000
 
        1 O1     1s        -0.0000    0.0000    0.0000   -0.0000   -0.0000   -0.0057   -0.0000   -0.0000    0.0104   -0.0085
        2 O1     2s         0.9990    0.0000    0.0000   -0.0000   -0.0000   -0.0826   -0.0000   -0.0000    0.1436   -0.0754
        3 O1     3s        -0.0430   -0.0000   -0.0000   -0.0000   -0.0000   -0.0161   -0.0000   -0.0000    0.0069   -0.0140
        4 O1     2px       -0.0000    0.8352   -0.5281   -0.0000    0.0000    0.0000   -0.0565    0.0909   -0.0000   -0.0000
        5 O1     3px        0.0000   -0.0892    0.0564    0.0000   -0.0000   -0.0000   -0.0012    0.0019   -0.0000   -0.0000
        6 O1     2py        0.0000   -0.5281   -0.8352    0.0000    0.0000   -0.0000   -0.0909   -0.0565    0.0000    0.0000
        7 O1     3py       -0.0000    0.0564    0.0892   -0.0000   -0.0000    0.0000   -0.0019   -0.0012    0.0000    0.0000
        8 O1     2pz       -0.0489    0.0000    0.0000   -0.0000   -0.0000   -0.0325    0.0000    0.0000    0.7517    0.5549
        9 O1     3pz       -0.0071   -0.0000   -0.0000    0.0000    0.0000    0.0103   -0.0000   -0.0000    0.0968    0.0978
       10 O1     3d2-      -0.0000   -0.0000    0.0000   -0.0000    0.0001    0.0000    0.0000   -0.0000   -0.0000    0.0000
       11 O1     3d1-      -0.0000    0.0066    0.0104   -0.0000   -0.0000    0.0000    0.0006    0.0004   -0.0000   -0.0000
       12 O1     3d0       -0.0404   -0.0000   -0.0000    0.0000    0.0000    0.0056    0.0000    0.0000   -0.0186   -0.0048
       13 O1     3d1+       0.0000   -0.0104    0.0066   -0.0000   -0.0000   -0.0000    0.0004   -0.0006    0.0000    0.0000
       14 O1     3d2+       0.0000   -0.0000   -0.0000   -0.0001   -0.0000   -0.0000   -0.0000   -0.0000    0.0000   -0.0000
       15 FE2    1s        -0.0002    0.0000    0.0000    0.0000    0.0000    0.0000    0.0000    0.0000    0.0010    0.0009
       16 FE2    2s        -0.0011    0.0000    0.0000    0.0000    0.0000    0.0006    0.0000    0.0000    0.0070    0.0066
       17 FE2    3s        -0.0080    0.0000    0.0000    0.0000    0.0000    0.0102    0.0000    0.0000    0.0394    0.0326
       18 FE2    4s        -0.0055   -0.0000   -0.0000    0.0000    0.0000    0.0186   -0.0000   -0.0000   -0.4543    0.9210
       19 FE2    5s        -0.0038    0.0000    0.0000    0.0000    0.0000   -0.0011    0.0000    0.0000    0.1053   -0.0987
       20 FE2    2px        0.0000   -0.0001    0.0001   -0.0000    0.0000   -0.0000   -0.0000    0.0000    0.0000    0.0000
       21 FE2    3px        0.0000   -0.0034    0.0022    0.0000   -0.0000   -0.0000   -0.0007    0.0011    0.0000    0.0000
       22 FE2    4px        0.0000    0.0056   -0.0035   -0.0000    0.0000    0.0000    0.0035   -0.0057   -0.0000   -0.0000
       23 FE2    5px        0.0000   -0.0001    0.0001    0.0000   -0.0000    0.0000    0.0012   -0.0019   -0.0000   -0.0000
       24 FE2    2py       -0.0000    0.0001    0.0001    0.0000    0.0000    0.0000   -0.0000   -0.0000   -0.0000   -0.0000
       25 FE2    3py       -0.0000    0.0022    0.0034   -0.0000   -0.0000    0.0000   -0.0011   -0.0007   -0.0000   -0.0000
       26 FE2    4py       -0.0000   -0.0035   -0.0056    0.0000    0.0000   -0.0000    0.0057    0.0035    0.0000    0.0000
       27 FE2    5py       -0.0000    0.0001    0.0001   -0.0000   -0.0000   -0.0000    0.0019    0.0012    0.0000    0.0000
       28 FE2    2pz       -0.0003    0.0000    0.0000   -0.0000    0.0000    0.0000    0.0000    0.0000    0.0013    0.0011
       29 FE2    3pz       -0.0126    0.0000    0.0000   -0.0000   -0.0000   -0.0002    0.0000    0.0000    0.0291    0.0254
       30 FE2    4pz       -0.0037   -0.0000   -0.0000    0.0000    0.0000    0.0247   -0.0000   -0.0000   -0.1326   -0.1885
       31 FE2    5pz       -0.0027    0.0000    0.0000    0.0000    0.0000    0.0023    0.0000    0.0000   -0.0046   -0.0093
       32 FE2    3d2-      -0.0000    0.0000   -0.0000    0.2930   -0.9545    0.0000   -0.0000    0.0000    0.0000   -0.0000
       33 FE2    4d2-       0.0000   -0.0000    0.0000   -0.0162    0.0528   -0.0000   -0.0000    0.0000   -0.0000    0.0000
       34 FE2    3d1-      -0.0000   -0.0419   -0.0663   -0.0000   -0.0000   -0.0000    0.8470    0.5268   -0.0000    0.0000
       35 FE2    4d1-      -0.0000    0.0000    0.0000    0.0000    0.0000    0.0000   -0.0335   -0.0208    0.0000    0.0000
       36 FE2    3d0        0.0171   -0.0000   -0.0000    0.0000    0.0000    0.9994    0.0000    0.0000    0.0819    0.0568
       37 FE2    4d0       -0.0011    0.0000    0.0000   -0.0000   -0.0000   -0.0387   -0.0000   -0.0000   -0.0132   -0.0258
       38 FE2    3d1+       0.0000    0.0663   -0.0419    0.0000   -0.0000    0.0000    0.5268   -0.8470    0.0000   -0.0000
       39 FE2    4d1+       0.0000   -0.0000    0.0000   -0.0000    0.0000   -0.0000   -0.0208    0.0335   -0.0000   -0.0000
       40 FE2    3d2+       0.0000    0.0000    0.0000    0.9545    0.2930   -0.0000    0.0000    0.0000   -0.0000    0.0000
       41 FE2    4d2+      -0.0000   -0.0000   -0.0000   -0.0528   -0.0162    0.0000    0.0000    0.0000    0.0000   -0.0000
       42 FE2    4f3-       0.0000   -0.0000    0.0000   -0.0000   -0.0000   -0.0000   -0.0000    0.0000    0.0000   -0.0000
       43 FE2    4f2-      -0.0000   -0.0000    0.0000    0.0003   -0.0009    0.0000   -0.0000    0.0000    0.0000   -0.0000
       44 FE2    4f1-      -0.0000   -0.0007   -0.0010   -0.0000   -0.0000   -0.0000    0.0011    0.0007    0.0000    0.0000
       45 FE2    4f0        0.0010   -0.0000   -0.0000    0.0000    0.0000    0.0019    0.0000    0.0000   -0.0030   -0.0022
       46 FE2    4f1+       0.0000    0.0010   -0.0007    0.0000   -0.0000    0.0000    0.0007   -0.0011   -0.0000   -0.0000
       47 FE2    4f2+       0.0000   -0.0000   -0.0000    0.0009    0.0003   -0.0000    0.0000    0.0000   -0.0000    0.0000
       48 FE2    4f3+       0.0000   -0.0000   -0.0000    0.0000   -0.0000   -0.0000    0.0000    0.0000    0.0000   -0.0000
 
          Orbital           21        22        23        24    
          Energy           -0.3297   -0.3297   -0.2667   -0.1889
          Occ. No.          0.0000    0.0000    0.0000    0.0000
 
        1 O1     1s         0.0000    0.0000   -0.0398   -0.0114
        2 O1     2s         0.0000    0.0000   -0.3616   -0.0914
        3 O1     3s         0.0000    0.0000   -0.0461   -0.0309
        4 O1     2px       -0.0485    0.0779   -0.0000    0.0000
        5 O1     3px        0.0168   -0.0270   -0.0000    0.0000
        6 O1     2py       -0.0779   -0.0485    0.0000   -0.0000
        7 O1     3py        0.0270    0.0168    0.0000   -0.0000
        8 O1     2pz       -0.0000   -0.0000    0.4411   -0.2090
        9 O1     3pz       -0.0000   -0.0000    0.1489   -0.0225
       10 O1     3d2-       0.0000   -0.0000    0.0000   -0.0000
       11 O1     3d1-      -0.0073   -0.0045    0.0000    0.0000
       12 O1     3d0        0.0000    0.0000    0.0010   -0.0092
       13 O1     3d1+      -0.0045    0.0073   -0.0000   -0.0000
       14 O1     3d2+      -0.0000   -0.0000   -0.0000    0.0000
       15 FE2    1s        -0.0000   -0.0000    0.0011   -0.0002
       16 FE2    2s        -0.0000   -0.0000    0.0079   -0.0017
       17 FE2    3s        -0.0000   -0.0000    0.0411   -0.0076
       18 FE2    4s        -0.0000   -0.0000    0.3049    0.1126
       19 FE2    5s        -0.0000   -0.0000    0.1073    0.9988
       20 FE2    2px        0.0001   -0.0002    0.0000   -0.0000
       21 FE2    3px        0.0028   -0.0045    0.0000   -0.0000
       22 FE2    4px        0.5235   -0.8418   -0.0000   -0.0000
       23 FE2    5px        0.0459   -0.0738   -0.0000   -0.0000
       24 FE2    2py        0.0002    0.0001   -0.0000    0.0000
       25 FE2    3py        0.0045    0.0028   -0.0000    0.0000
       26 FE2    4py        0.8418    0.5235    0.0000    0.0000
       27 FE2    5py        0.0738    0.0459    0.0000    0.0000
       28 FE2    2pz       -0.0000   -0.0000    0.0016   -0.0003
       29 FE2    3pz       -0.0000   -0.0000    0.0351   -0.0058
       30 FE2    4pz       -0.0000   -0.0000    1.0865   -0.1090
       31 FE2    5pz       -0.0000   -0.0000    0.1074   -0.0082
       32 FE2    3d2-       0.0000   -0.0000    0.0000    0.0000
       33 FE2    4d2-      -0.0000    0.0000   -0.0000   -0.0000
       34 FE2    3d1-      -0.0014   -0.0009    0.0000   -0.0000
       35 FE2    4d1-       0.0056    0.0035    0.0000   -0.0000
       36 FE2    3d0       -0.0000   -0.0000    0.0496   -0.0065
       37 FE2    4d0        0.0000    0.0000   -0.0342    0.0167
       38 FE2    3d1+      -0.0009    0.0014   -0.0000    0.0000
       39 FE2    4d1+       0.0035   -0.0056   -0.0000    0.0000
       40 FE2    3d2+      -0.0000   -0.0000   -0.0000   -0.0000
       41 FE2    4d2+       0.0000    0.0000   -0.0000    0.0000
       42 FE2    4f3-      -0.0000   -0.0000   -0.0000    0.0000
       43 FE2    4f2-      -0.0000    0.0000    0.0000    0.0000
       44 FE2    4f1-       0.0001    0.0000   -0.0000    0.0000
       45 FE2    4f0        0.0000    0.0000   -0.0032    0.0003
       46 FE2    4f1+       0.0000   -0.0001    0.0000   -0.0000
       47 FE2    4f2+       0.0000    0.0000   -0.0000    0.0000
       48 FE2    4f3+      -0.0000    0.0000   -0.0000    0.0000
--
 
 
  Input file to MOLDEN was generated!
 
 
++    Static properties:
      ------------------
 
 
      LoProp Charges per center
 

                   O1       FE2   
      Nuclear      8.0000  26.0000
      Electronic  -7.5092 -24.4908
 
      Total        0.4908   1.5092
--
 
 
      All orbitals with orbital energies smaller than  E(LUMO)+0.5 are printed
 
++    Molecular orbitals:
      -------------------
 
      Title: UHF orbitals (beta)

      Molecular orbitals for symmetry species 1: a  
 
          Orbital            1         2         3         4         5         6         7         8         9        10    
          Energy         -264.1966  -32.8885  -27.9607  -27.9606  -27.9606  -21.3505   -4.6110   -3.1204   -3.0849   -3.0849
          Occ. No.          1.0000    1.0000    1.0000    1.0000    1.0000    1.0000    1.0000    1.0000    1.0000    1.0000
 
        1 O1     1s         0.0000   -0.0000    0.0000   -0.0000    0.0000    1.0000   -0.0002   -0.0002    0.0000    0.0000
        2 O1     2s         0.0000   -0.0001    0.0002   -0.0000    0.0000   -0.0009   -0.0007    0.0049   -0.0000   -0.0000
        3 O1     3s        -0.0000   -0.0001    0.0002   -0.0000    0.0000    0.0003   -0.0010   -0.0001    0.0000    0.0000
        4 O1     2px        0.0000   -0.0000   -0.0000    0.0001    0.0000   -0.0000    0.0000    0.0000    0.0029   -0.0018
        5 O1     3px        0.0000   -0.0000   -0.0000    0.0001    0.0000    0.0000    0.0000    0.0000    0.0001   -0.0000
        6 O1     2py       -0.0000    0.0000    0.0000    0.0000   -0.0001    0.0000   -0.0000   -0.0000   -0.0018   -0.0029
        7 O1     3py       -0.0000    0.0000    0.0000    0.0000   -0.0001   -0.0000   -0.0000   -0.0000   -0.0000   -0.0001
        8 O1     2pz        0.0000    0.0001   -0.0000    0.0000   -0.0000   -0.0003    0.0008   -0.0032    0.0000    0.0000
        9 O1     3pz       -0.0000    0.0001    0.0000   -0.0000    0.0000   -0.0004    0.0013    0.0011   -0.0000   -0.0000
       10 O1     3d2-       0.0000    0.0000    0.0000    0.0000    0.0000    0.0000    0.0000    0.0000    0.0000   -0.0000
       11 O1     3d1-       0.0000   -0.0000    0.0000    0.0000   -0.0000    0.0000   -0.0000   -0.0000    0.0003    0.0005
       12 O1     3d0       -0.0000   -0.0000   -0.0000    0.0000   -0.0000    0.0013   -0.0003    0.0003   -0.0000   -0.0000
       13 O1     3d1+      -0.0000    0.0000   -0.0000    0.0000    0.0000   -0.0000    0.0000    0.0000   -0.0005    0.0003
       14 O1     3d2+      -0.0000   -0.0000   -0.0000   -0.0000    0.0000   -0.0000   -0.0000   -0.0000    0.0000    0.0000
       15 FE2    1s         1.0000    0.0000   -0.0000    0.0000   -0.0000   -0.0000    0.0000    0.0000    0.0000    0.0000
       16 FE2    2s        -0.0000    1.0000   -0.0008    0.0000   -0.0000   -0.0000    0.0006    0.0000   -0.0000   -0.0000
       17 FE2    3s         0.0000   -0.0005   -0.0001    0.0000   -0.0000   -0.0001    1.0003   -0.0010   -0.0000   -0.0000
       18 FE2    4s         0.0000    0.0003   -0.0001    0.0000   -0.0000   -0.0005    0.0065    0.0040   -0.0000   -0.0000
       19 FE2    5s         0.0000   -0.0002   -0.0001    0.0000   -0.0000    0.0001   -0.0038   -0.0018    0.0000    0.0000
       20 FE2    2px       -0.0000   -0.0000   -0.0007    0.8929    0.4502   -0.0000   -0.0000    0.0000    0.0020   -0.0012
       21 FE2    3px       -0.0000    0.0000    0.0000   -0.0021   -0.0011   -0.0000    0.0000    0.0000    0.8502   -0.5263
       22 FE2    4px       -0.0000   -0.0000   -0.0000    0.0003    0.0002   -0.0000   -0.0000   -0.0000    0.0027   -0.0017
       23 FE2    5px       -0.0000    0.0000    0.0000   -0.0008   -0.0004   -0.0000   -0.0000    0.0000   -0.0054    0.0033
       24 FE2    2py        0.0000    0.0000    0.0027    0.4502   -0.8929    0.0000    0.0000   -0.0000   -0.0012   -0.0020
       25 FE2    3py        0.0000   -0.0000   -0.0000   -0.0011    0.0021    0.0000   -0.0000   -0.0000   -0.5263   -0.8502
       26 FE2    4py        0.0000    0.0000    0.0000    0.0002   -0.0003    0.0000    0.0000    0.0000   -0.0017   -0.0027
       27 FE2    5py        0.0000   -0.0000   -0.0000   -0.0004    0.0008    0.0000    0.0000   -0.0000    0.0033    0.0054
       28 FE2    2pz        0.0000    0.0008    1.0000   -0.0005    0.0027   -0.0000    0.0001    0.0017   -0.0000   -0.0000
       29 FE2    3pz        0.0000   -0.0000   -0.0018    0.0000   -0.0000   -0.0001    0.0012    0.9997   -0.0000   -0.0000
       30 FE2    4pz        0.0000    0.0001    0.0002   -0.0000    0.0000   -0.0005    0.0020    0.0071   -0.0000   -0.0000
       31 FE2    5pz       -0.0000    0.0000   -0.0009    0.0000   -0.0000   -0.0000   -0.0001   -0.0073    0.0000    0.0000
       32 FE2    3d2-      -0.0000   -0.0000    0.0000   -0.0000   -0.0000   -0.0000   -0.0000   -0.0000   -0.0000    0.0000
       33 FE2    4d2-      -0.0000   -0.0000    0.0000   -0.0000   -0.0000   -0.0000   -0.0000   -0.0000   -0.0000    0.0000
       34 FE2    3d1-       0.0000    0.0000    0.0000    0.0000   -0.0000    0.0000   -0.0000   -0.0000    0.0010    0.0016
       35 FE2    4d1-      -0.0000   -0.0000   -0.0000   -0.0000    0.0001    0.0000    0.0000    0.0000   -0.0011   -0.0018
       36 FE2    3d0        0.0000    0.0001    0.0001   -0.0000    0.0000   -0.0001    0.0015    0.0033    0.0000    0.0000
       37 FE2    4d0        0.0000    0.0001   -0.0001    0.0000   -0.0000   -0.0003    0.0012   -0.0001   -0.0000   -0.0000
       38 FE2    3d1+      -0.0000   -0.0000   -0.0000    0.0000    0.0000   -0.0000    0.0000    0.0000   -0.0016    0.0010
       39 FE2    4d1+       0.0000    0.0000    0.0000   -0.0001   -0.0000   -0.0000   -0.0000   -0.0000    0.0018   -0.0011
       40 FE2    3d2+       0.0000    0.0000    0.0000    0.0000   -0.0000    0.0000    0.0000    0.0000   -0.0000   -0.0000
       41 FE2    4d2+       0.0000    0.0000    0.0000    0.0000   -0.0000    0.0000    0.0000    0.0000   -0.0000   -0.0000
       42 FE2    4f3-       0.0000   -0.0000    0.0000    0.0000    0.0000    0.0000   -0.0000    0.0000    0.0000   -0.0000
       43 FE2    4f2-      -0.0000   -0.0000   -0.0000   -0.0000   -0.0000    0.0000   -0.0000   -0.0000   -0.0000    0.0000
       44 FE2    4f1-       0.0000   -0.0000    0.0000    0.0002   -0.0005    0.0000   -0.0000    0.0000   -0.0048   -0.0077
       45 FE2    4f0       -0.0000    0.0000   -0.0007    0.0000   -0.0000   -0.0001    0.0005   -0.0141   -0.0000   -0.0000
       46 FE2    4f1+      -0.0000    0.0000   -0.0000    0.0005    0.0002   -0.0000    0.0000   -0.0000    0.0077   -0.0048
       47 FE2    4f2+       0.0000   -0.0000    0.0000    0.0000   -0.0000   -0.0000    0.0000    0.0000   -0.0000   -0.0000
       48 FE2    4f3+       0.0000   -0.0000    0.0000   -0.0000    0.0000    0.0000   -0.0000    0.0000    0.0000    0.0000
 
          Orbital           11        12        13        14        15        16        17        18        19        20    
          Energy           -1.8140   -1.2933   -0.8467   -0.8467   -0.5709   -0.5709   -0.4571   -0.3052   -0.3052   -0.2857
          Occ. No.          1.0000    1.0000    1.0000    1.0000    0.0000    0.0000    0.0000    0.0000    0.0000    0.0000
 
        1 O1     1s         0.0011    0.0022    0.0000    0.0000    0.0000    0.0000   -0.0167    0.0000    0.0000   -0.0280
        2 O1     2s         0.9971    0.0563    0.0000    0.0000    0.0000    0.0000   -0.1904    0.0000    0.0000   -0.2714
        3 O1     3s        -0.0188   -0.0178    0.0000    0.0000   -0.0000   -0.0000   -0.0252    0.0000    0.0000   -0.0444
        4 O1     2px        0.0000   -0.0000    0.3986   -0.2496   -0.4617    0.7237    0.0000   -0.1231    0.1998    0.0000
        5 O1     3px        0.0000    0.0000    0.0346   -0.0217   -0.0639    0.1002    0.0000   -0.0099    0.0161    0.0000
        6 O1     2py       -0.0000    0.0000   -0.2496   -0.3986   -0.7237   -0.4617   -0.0000   -0.1998   -0.1231   -0.0000
        7 O1     3py       -0.0000   -0.0000   -0.0217   -0.0346   -0.1002   -0.0639   -0.0000   -0.0161   -0.0099   -0.0000
        8 O1     2pz       -0.0352    0.9790    0.0000    0.0000    0.0000    0.0000    0.1632    0.0000    0.0000    0.1608
        9 O1     3pz       -0.0206   -0.0847    0.0000    0.0000    0.0000    0.0000    0.0003    0.0000    0.0000    0.0505
       10 O1     3d2-       0.0000   -0.0000   -0.0000    0.0000   -0.0000    0.0000    0.0000   -0.0000    0.0000    0.0000
       11 O1     3d1-       0.0000   -0.0000    0.0089    0.0142    0.0048    0.0030    0.0000   -0.0081   -0.0050   -0.0000
       12 O1     3d0        0.0525   -0.0098   -0.0000   -0.0000   -0.0000   -0.0000   -0.0006   -0.0000   -0.0000   -0.0107
       13 O1     3d1+      -0.0000    0.0000   -0.0142    0.0089    0.0030   -0.0048   -0.0000   -0.0050    0.0081    0.0000
       14 O1     3d2+      -0.0000   -0.0000   -0.0000   -0.0000    0.0000    0.0000    0.0000    0.0000    0.0000   -0.0000
       15 FE2    1s        -0.0003    0.0004    0.0000    0.0000    0.0000    0.0000    0.0002    0.0000    0.0000    0.0004
       16 FE2    2s        -0.0020    0.0033    0.0000    0.0000    0.0000    0.0000    0.0012    0.0000    0.0000    0.0032
       17 FE2    3s        -0.0139    0.0217    0.0000    0.0000    0.0000    0.0000    0.0026    0.0000    0.0000    0.0168
       18 FE2    4s        -0.0031   -0.0325   -0.0000   -0.0000   -0.0000   -0.0000    1.0337    0.0000    0.0000    0.0894
       19 FE2    5s        -0.0044    0.0117    0.0000    0.0000   -0.0000   -0.0000   -0.0888    0.0000    0.0000    0.0275
       20 FE2    2px       -0.0000    0.0000   -0.0003    0.0002    0.0003   -0.0004   -0.0000   -0.0001    0.0002   -0.0000
       21 FE2    3px        0.0000    0.0000   -0.0050    0.0031    0.0078   -0.0122   -0.0000    0.0000   -0.0000    0.0000
       22 FE2    4px       -0.0000   -0.0000    0.0696   -0.0436   -0.0169    0.0265    0.0000    0.5249   -0.8517   -0.0000
       23 FE2    5px       -0.0000   -0.0000    0.0008   -0.0005   -0.0014    0.0022    0.0000    0.0558   -0.0906   -0.0000
       24 FE2    2py        0.0000   -0.0000    0.0002    0.0003    0.0004    0.0003    0.0000   -0.0002   -0.0001    0.0000
       25 FE2    3py       -0.0000   -0.0000    0.0031    0.0050    0.0122    0.0078    0.0000    0.0000    0.0000   -0.0000
       26 FE2    4py        0.0000    0.0000   -0.0436   -0.0696   -0.0265   -0.0169   -0.0000    0.8517    0.5249    0.0000
       27 FE2    5py        0.0000    0.0000   -0.0005   -0.0008   -0.0022   -0.0014   -0.0000    0.0906    0.0558    0.0000
       28 FE2    2pz       -0.0006    0.0010    0.0000    0.0000    0.0000    0.0000    0.0003    0.0000    0.0000    0.0004
       29 FE2    3pz       -0.0222    0.0291    0.0000    0.0000    0.0000    0.0000    0.0053    0.0000    0.0000    0.0103
       30 FE2    4pz        0.0020   -0.0346   -0.0000   -0.0000   -0.0000   -0.0000    0.0164   -0.0000   -0.0000    0.9882
       31 FE2    5pz       -0.0024    0.0009   -0.0000   -0.0000   -0.0000   -0.0000    0.0023   -0.0000   -0.0000    0.1064
       32 FE2    3d2-       0.0000    0.0000   -0.0000    0.0000   -0.0000    0.0000    0.0000   -0.0000    0.0000    0.0000
       33 FE2    4d2-       0.0000   -0.0000   -0.0000    0.0000   -0.0000    0.0000    0.0000   -0.0000    0.0000    0.0000
       34 FE2    3d1-       0.0000   -0.0000   -0.4426   -0.7068    0.4618    0.2946   -0.0000   -0.0296   -0.0182    0.0000
       35 FE2    4d1-       0.0000    0.0000   -0.0498   -0.0795    0.0390    0.0249   -0.0000   -0.0016   -0.0010    0.0000
       36 FE2    3d0        0.0091   -0.0330   -0.0000   -0.0000    0.0000    0.0000   -0.0368   -0.0000   -0.0000   -0.3804
       37 FE2    4d0        0.0031   -0.0165   -0.0000   -0.0000    0.0000    0.0000   -0.0156   -0.0000   -0.0000   -0.1057
       38 FE2    3d1+      -0.0000    0.0000    0.7068   -0.4426    0.2946   -0.4618    0.0000   -0.0182    0.0296   -0.0000
       39 FE2    4d1+      -0.0000   -0.0000    0.0795   -0.0498    0.0249   -0.0390    0.0000   -0.0010    0.0016   -0.0000
       40 FE2    3d2+      -0.0000   -0.0000   -0.0000   -0.0000    0.0000    0.0000   -0.0000    0.0000    0.0000   -0.0000
       41 FE2    4d2+      -0.0000    0.0000   -0.0000   -0.0000    0.0000    0.0000   -0.0000    0.0000    0.0000   -0.0000
       42 FE2    4f3-       0.0000   -0.0000   -0.0000    0.0000   -0.0000    0.0000    0.0000    0.0000   -0.0000    0.0000
       43 FE2    4f2-       0.0000   -0.0000   -0.0000    0.0000   -0.0000    0.0000    0.0000    0.0000   -0.0000    0.0000
       44 FE2    4f1-       0.0000    0.0000   -0.0027   -0.0044   -0.0027   -0.0017   -0.0000    0.0007    0.0004    0.0000
       45 FE2    4f0        0.0009   -0.0025   -0.0000   -0.0000   -0.0000   -0.0000   -0.0020   -0.0000   -0.0000   -0.0036
       46 FE2    4f1+      -0.0000   -0.0000    0.0044   -0.0027   -0.0017    0.0027    0.0000    0.0004   -0.0007   -0.0000
       47 FE2    4f2+      -0.0000    0.0000   -0.0000   -0.0000    0.0000    0.0000   -0.0000   -0.0000   -0.0000   -0.0000
       48 FE2    4f3+       0.0000   -0.0000   -0.0000   -0.0000    0.0000    0.0000    0.0000   -0.0000   -0.0000    0.0000
 
          Orbital           21        22        23        24    
          Energy           -0.2850   -0.2850   -0.2309   -0.1828
          Occ. No.          0.0000    0.0000    0.0000    0.0000
 
        1 O1     1s        -0.0000   -0.0000   -0.0283   -0.0178
        2 O1     2s        -0.0000   -0.0000   -0.2911   -0.1396
        3 O1     3s        -0.0000   -0.0000   -0.0087   -0.0341
        4 O1     2px        0.0000    0.0000    0.0000   -0.0000
        5 O1     3px       -0.0000   -0.0000    0.0000   -0.0000
        6 O1     2py        0.0000   -0.0000   -0.0000    0.0000
        7 O1     3py       -0.0000    0.0000   -0.0000    0.0000
        8 O1     2pz        0.0000    0.0000    0.2370   -0.0555
        9 O1     3pz        0.0000    0.0000   -0.0007    0.0714
       10 O1     3d2-      -0.0017   -0.0041    0.0000    0.0000
       11 O1     3d1-       0.0000   -0.0000    0.0000   -0.0000
       12 O1     3d0       -0.0000   -0.0000    0.0118   -0.0151
       13 O1     3d1+       0.0000    0.0000   -0.0000    0.0000
       14 O1     3d2+       0.0041   -0.0017   -0.0000   -0.0000
       15 FE2    1s         0.0000    0.0000    0.0002    0.0003
       16 FE2    2s         0.0000    0.0000    0.0016    0.0025
       17 FE2    3s         0.0000    0.0000    0.0082    0.0144
       18 FE2    4s         0.0000    0.0000    0.1150    0.1499
       19 FE2    5s         0.0000    0.0000   -0.0629    0.9921
       20 FE2    2px        0.0000    0.0000   -0.0000    0.0000
       21 FE2    3px       -0.0000   -0.0000   -0.0000    0.0000
       22 FE2    4px       -0.0000   -0.0000   -0.0000    0.0000
       23 FE2    5px       -0.0000   -0.0000   -0.0000    0.0000
       24 FE2    2py        0.0000   -0.0000    0.0000   -0.0000
       25 FE2    3py       -0.0000    0.0000    0.0000   -0.0000
       26 FE2    4py       -0.0000    0.0000    0.0000   -0.0000
       27 FE2    5py       -0.0000    0.0000    0.0000   -0.0000
       28 FE2    2pz        0.0000    0.0000    0.0002    0.0004
       29 FE2    3pz        0.0000    0.0000    0.0055    0.0083
       30 FE2    4pz        0.0000    0.0000    0.4950    0.0517
       31 FE2    5pz        0.0000    0.0000    0.0485    0.0115
       32 FE2    3d2-      -0.3682   -0.8963    0.0000    0.0000
       33 FE2    4d2-      -0.0938   -0.2284    0.0000    0.0000
       34 FE2    3d1-      -0.0000    0.0000   -0.0000    0.0000
       35 FE2    4d1-      -0.0000    0.0000   -0.0000    0.0000
       36 FE2    3d0       -0.0000   -0.0000    0.8987    0.0828
       37 FE2    4d0       -0.0000   -0.0000    0.2192    0.0248
       38 FE2    3d1+      -0.0000   -0.0000    0.0000   -0.0000
       39 FE2    4d1+      -0.0000   -0.0000    0.0000   -0.0000
       40 FE2    3d2+       0.8963   -0.3682   -0.0000   -0.0000
       41 FE2    4d2+       0.2284   -0.0938   -0.0000   -0.0000
       42 FE2    4f3-      -0.0000    0.0000    0.0000   -0.0000
       43 FE2    4f2-      -0.0005   -0.0013    0.0000    0.0000
       44 FE2    4f1-      -0.0000    0.0000   -0.0000   -0.0000
       45 FE2    4f0       -0.0000   -0.0000   -0.0015    0.0001
       46 FE2    4f1+      -0.0000   -0.0000    0.0000    0.0000
       47 FE2    4f2+       0.0013   -0.0005   -0.0000   -0.0000
       48 FE2    4f3+      -0.0000   -0.0000    0.0000   -0.0000
--
 
 
++    Molecular charges:
      ------------------
 
      Mulliken charges per centre and basis function type
      ---------------------------------------------------
 
                            O1                      FE2   
                     alpha        beta       alpha        beta
      1s           1.0000      1.0000      1.0000      1.0000
      2s           0.9971      0.9964      1.0000      1.0000
      2px          0.9880      0.2483      1.0000      1.0000
      2pz          0.0056      0.9750      1.0000      1.0000
      2py          0.9880      0.2483      1.0000      1.0000
      3s           0.0010      0.0011      1.0000      1.0003
      3px          0.0101      0.0066      0.9999      0.9998
      3pz         -0.0005      0.0056      0.9999      0.9998
      3py          0.0101      0.0066      0.9999      0.9998
      4s           0.0000      0.0000     -0.0010      0.0041
      3d2+        -0.0000      0.0000      0.9969      0.0000
      3d1+         0.0002      0.0012      0.9990      0.7147
      3d0          0.0020      0.0029      0.9957      0.0036
      3d1-         0.0002      0.0012      0.9990      0.7147
      3d2-        -0.0000      0.0000      0.9969      0.0000
      4px          0.0000      0.0000      0.0006      0.0125
      4pz          0.0000      0.0000     -0.0010      0.0073
      4py          0.0000      0.0000      0.0006      0.0125
      5s           0.0000      0.0000     -0.0003      0.0009
      4d2+         0.0000      0.0000      0.0031      0.0000
      4d1+         0.0000      0.0000      0.0022      0.0166
      4d0          0.0000      0.0000      0.0020      0.0029
      4d1-         0.0000      0.0000      0.0022      0.0166
      4d2-         0.0000      0.0000      0.0031      0.0000
      5px          0.0000      0.0000     -0.0000      0.0001
      5pz          0.0000      0.0000     -0.0005     -0.0003
      5py          0.0000      0.0000     -0.0000      0.0001
      4f3+         0.0000      0.0000      0.0000      0.0000
      4f2+         0.0000      0.0000      0.0000      0.0000
      4f1+         0.0000      0.0000      0.0001      0.0002
      4f0          0.0000      0.0000      0.0000      0.0003
      4f1-         0.0000      0.0000      0.0001      0.0002
      4f2-         0.0000      0.0000      0.0000      0.0000
      4f3-         0.0000      0.0000      0.0000      0.0000
      Total        4.0016      3.4932     13.9984     10.5068
      Total              7.4948                 24.5052
 
      Charge            0.5052                  1.4948
 
      Total electronic charge=   32.000000
 
      Total            charge=    2.000000
--
 
 
  Input file to MOLDEN was generated!
 
 
++    Static properties:
      ------------------
 
 
      LoProp Charges per center
 

                   O1       FE2   
      Nuclear      8.0000  26.0000
      Electronic  -7.5092 -24.4908
 
      Total        0.4908   1.5092
--
 
 
++    Natural Bond Order analysis
      ---------------------------
      Based on LoProp computed density
      -------------------------------------------------------------------------------------
      Atom A       Atom B       Bond Order
        O1           FE2            2.854
      -------------------------------------------------------------------------------------
      NBO located     19.999 core electrons.
      NBO located      1.997 lone pair electrons.
      NBO located      5.709 electrons involved in    1 bonds.
      NBO located      0.986 non-bonded electrons on atom O1        
      The remaining    3.309 electrons are to be considered as diffuse
--
 
 
++    Molecular orbitals:
      -------------------
 
      Title: Natural orbitals

      Molecular orbitals for symmetry species 1: a  
 
          Orbital            1         2         3         4         5         6         7         8         9        10    
          Energy         -264.1979  -32.5803  -21.6928  -27.4223  -27.8109  -27.8106   -5.2148   -3.5039   -3.5042   -3.4630
          Occ. No.          2.0000    2.0000    2.0000    2.0000    2.0000    2.0000    2.0000    1.9998    1.9998    1.9998
 
        1 O1     1s        -0.0002   -0.0037    0.9653   -0.2506   -0.0001    0.0000   -0.0662    0.0000   -0.0000    0.0180
        2 O1     2s         0.0000    0.0002   -0.0277    0.0062    0.0000   -0.0000   -0.0030    0.0000   -0.0000    0.0296
        3 O1     3s        -0.0000    0.0000    0.0004   -0.0001   -0.0000    0.0000   -0.0007   -0.0000    0.0000   -0.0010
        4 O1     2px       -0.0000   -0.0000   -0.0000   -0.0000    0.0002    0.0003    0.0000   -0.0059   -0.0095   -0.0000
        5 O1     3px        0.0000   -0.0000    0.0000    0.0000   -0.0000   -0.0000   -0.0000    0.0003    0.0005    0.0000
        6 O1     2py        0.0000    0.0000    0.0000   -0.0000    0.0003   -0.0002   -0.0000   -0.0095    0.0059    0.0000
        7 O1     3py       -0.0000    0.0000   -0.0000    0.0000   -0.0000    0.0000    0.0000    0.0005   -0.0003   -0.0000
        8 O1     2pz        0.0000   -0.0000    0.0012   -0.0003   -0.0000    0.0000    0.0004   -0.0000    0.0000   -0.0014
        9 O1     3pz       -0.0000   -0.0001    0.0004   -0.0000   -0.0000   -0.0000    0.0008   -0.0000    0.0000   -0.0008
       10 O1     3d2-      -0.0000   -0.0000    0.0000   -0.0000   -0.0000   -0.0000    0.0000    0.0000    0.0000   -0.0000
       11 O1     3d1-       0.0000   -0.0000   -0.0000   -0.0000    0.0000   -0.0000    0.0000   -0.0001    0.0000    0.0000
       12 O1     3d0       -0.0000    0.0000   -0.0002    0.0000    0.0000    0.0000   -0.0001    0.0000   -0.0000    0.0001
       13 O1     3d1+      -0.0000    0.0000    0.0000   -0.0000    0.0000    0.0000   -0.0000   -0.0000   -0.0001   -0.0000
       14 O1     3d2+       0.0000    0.0000   -0.0000    0.0000    0.0000   -0.0000   -0.0000   -0.0000    0.0000    0.0000
       15 FE2    1s         1.0000   -0.0000    0.0002    0.0000    0.0000    0.0000   -0.0000   -0.0000    0.0000   -0.0000
       16 FE2    2s         0.0000    0.9935    0.0128    0.0048    0.0000   -0.0000    0.1125   -0.0000    0.0000   -0.0052
       17 FE2    3s         0.0000   -0.1129    0.0597   -0.0342   -0.0000    0.0000    0.9894   -0.0000    0.0000   -0.0634
       18 FE2    4s         0.0000   -0.0005    0.0004    0.0000    0.0000   -0.0000    0.0043   -0.0000    0.0000   -0.0023
       19 FE2    5s         0.0000    0.0003   -0.0001   -0.0000   -0.0000   -0.0000   -0.0020    0.0000   -0.0000    0.0009
       20 FE2    2px       -0.0000    0.0000    0.0000   -0.0001    0.5244    0.8465   -0.0000    0.0486    0.0786    0.0000
       21 FE2    3px        0.0000   -0.0000    0.0000    0.0000   -0.0486   -0.0786   -0.0000    0.5238    0.8463    0.0001
       22 FE2    4px       -0.0000   -0.0000    0.0000   -0.0000    0.0001    0.0002    0.0000   -0.0016   -0.0025   -0.0000
       23 FE2    5px       -0.0000    0.0000   -0.0000   -0.0000    0.0001    0.0001   -0.0000   -0.0009   -0.0015   -0.0000
       24 FE2    2py        0.0000   -0.0000   -0.0000   -0.0002    0.8465   -0.5244    0.0000    0.0785   -0.0486   -0.0000
       25 FE2    3py       -0.0000    0.0000    0.0000    0.0000   -0.0785    0.0487    0.0000    0.8463   -0.5238   -0.0005
       26 FE2    4py        0.0000    0.0000   -0.0000   -0.0000    0.0002   -0.0001   -0.0000   -0.0025    0.0016    0.0000
       27 FE2    5py        0.0000   -0.0000    0.0000   -0.0000    0.0001   -0.0001    0.0000   -0.0015    0.0009    0.0000
       28 FE2    2pz        0.0001    0.0100   -0.2504   -0.9644   -0.0002    0.0000   -0.0223   -0.0000    0.0000   -0.0809
       29 FE2    3pz       -0.0000    0.0012    0.0335    0.0762    0.0000   -0.0000   -0.0626   -0.0004    0.0004   -0.9945
       30 FE2    4pz        0.0000   -0.0001    0.0001    0.0001    0.0000    0.0000    0.0012   -0.0000    0.0000   -0.0015
       31 FE2    5pz       -0.0000    0.0000   -0.0000   -0.0002   -0.0000    0.0000    0.0004    0.0000   -0.0000    0.0028
       32 FE2    3d2-      -0.0000    0.0000   -0.0000    0.0000   -0.0000   -0.0000   -0.0000    0.0000    0.0000    0.0000
       33 FE2    4d2-      -0.0000    0.0000   -0.0000    0.0000    0.0000    0.0000   -0.0000   -0.0000   -0.0000    0.0000
       34 FE2    3d1-       0.0000    0.0000   -0.0000   -0.0000    0.0011   -0.0007   -0.0000   -0.0243    0.0151    0.0000
       35 FE2    4d1-       0.0000   -0.0000    0.0000    0.0000   -0.0001    0.0000   -0.0000   -0.0003    0.0002    0.0000
       36 FE2    3d0        0.0000   -0.0001   -0.0001    0.0002    0.0000   -0.0000    0.0012   -0.0000    0.0000   -0.0027
       37 FE2    4d0        0.0000   -0.0001    0.0001    0.0000   -0.0000    0.0000    0.0021    0.0000   -0.0000    0.0001
       38 FE2    3d1+      -0.0000   -0.0000    0.0000   -0.0000    0.0007    0.0011    0.0000   -0.0151   -0.0243   -0.0000
       39 FE2    4d1+      -0.0000    0.0000   -0.0000    0.0000   -0.0000   -0.0001    0.0000   -0.0002   -0.0003   -0.0000
       40 FE2    3d2+       0.0000   -0.0000    0.0000   -0.0000    0.0000   -0.0000    0.0000   -0.0000    0.0000   -0.0000
       41 FE2    4d2+       0.0000   -0.0000    0.0000   -0.0000   -0.0000    0.0000    0.0000    0.0000   -0.0000   -0.0000
       42 FE2    4f3-       0.0000    0.0000    0.0000    0.0000   -0.0000   -0.0000   -0.0000    0.0000    0.0000   -0.0000
       43 FE2    4f2-       0.0000    0.0000   -0.0000    0.0000    0.0000    0.0000    0.0000   -0.0000   -0.0000    0.0000
       44 FE2    4f1-       0.0000    0.0000    0.0000   -0.0000    0.0000   -0.0000   -0.0000    0.0015   -0.0009   -0.0000
       45 FE2    4f0        0.0000   -0.0000   -0.0002   -0.0002   -0.0000    0.0000    0.0007    0.0000   -0.0000    0.0076
       46 FE2    4f1+      -0.0000   -0.0000   -0.0000   -0.0000    0.0000    0.0000    0.0000    0.0009    0.0015    0.0000
       47 FE2    4f2+      -0.0000    0.0000    0.0000   -0.0000   -0.0000    0.0000   -0.0000    0.0000   -0.0000   -0.0000
       48 FE2    4f3+       0.0000    0.0000    0.0000    0.0000    0.0000   -0.0000   -0.0000   -0.0000    0.0000   -0.0000
 
          Orbital           11        12        13        14        15        16        17        18        19        20    
          Energy           -1.8755   -1.0196   -1.0196   -0.8426   -0.8944   -0.8944   -0.7106   -0.7106   -0.7263    0.0928
          Occ. No.          1.9951    1.9779    1.9779    1.1267    1.0000    1.0000    1.0000    1.0000    0.8733    0.0221
 
        1 O1     1s         0.0278    0.0000   -0.0000   -0.0053   -0.0000    0.0000    0.0000   -0.0000    0.0028   -0.0000
        2 O1     2s         0.9981   -0.0000    0.0000   -0.0989   -0.0000    0.0000    0.0000   -0.0000    0.0115   -0.0000
        3 O1     3s        -0.0308    0.0000   -0.0000    0.0012    0.0000   -0.0000   -0.0000    0.0000    0.0258   -0.0000
        4 O1     2px        0.0000    0.4117    0.2549    0.0000   -0.7294   -0.4613    0.0000   -0.0000    0.0000   -0.0568
        5 O1     3px       -0.0000   -0.0098   -0.0061   -0.0000    0.0711    0.0450   -0.0000    0.0000   -0.0000    0.2618
        6 O1     2py       -0.0000   -0.2549    0.4117   -0.0000    0.4613   -0.7294    0.0000   -0.0000   -0.0000   -0.0917
        7 O1     3py        0.0000    0.0061   -0.0098    0.0000   -0.0450    0.0711   -0.0000   -0.0000    0.0000    0.4228
        8 O1     2pz       -0.0471    0.0000   -0.0000   -0.6736   -0.0000    0.0000    0.0000   -0.0000   -0.7159    0.0000
        9 O1     3pz       -0.0134   -0.0000    0.0000    0.0634    0.0000   -0.0000    0.0000   -0.0000    0.0564   -0.0000
       10 O1     3d2-       0.0000   -0.0000   -0.0000    0.0000    0.0000    0.0000   -0.0000   -0.0001   -0.0000   -0.0000
       11 O1     3d1-       0.0000    0.0062   -0.0100    0.0000   -0.0056    0.0088   -0.0000   -0.0000   -0.0000   -0.0408
       12 O1     3d0        0.0061   -0.0000    0.0000    0.0098    0.0000   -0.0000   -0.0000    0.0000    0.0028    0.0000
       13 O1     3d1+      -0.0000   -0.0100   -0.0062   -0.0000    0.0088    0.0056   -0.0000    0.0000    0.0000   -0.0252
       14 O1     3d2+      -0.0000   -0.0000    0.0000   -0.0000    0.0000   -0.0000   -0.0001    0.0000    0.0000    0.0000
       15 FE2    1s        -0.0002    0.0000   -0.0000   -0.0003   -0.0000    0.0000    0.0000   -0.0000   -0.0004   -0.0000
       16 FE2    2s        -0.0010   -0.0000    0.0000   -0.0020   -0.0000    0.0000    0.0000   -0.0000   -0.0027   -0.0000
       17 FE2    3s        -0.0053   -0.0000    0.0000   -0.0140   -0.0000    0.0000   -0.0000    0.0000   -0.0166   -0.0000
       18 FE2    4s        -0.0040   -0.0000    0.0000    0.0340    0.0000   -0.0000   -0.0000    0.0000    0.0106    0.0001
       19 FE2    5s        -0.0042    0.0000   -0.0000   -0.0085   -0.0000    0.0000    0.0000   -0.0000   -0.0080   -0.0000
       20 FE2    2px        0.0000    0.0012    0.0007   -0.0000    0.0001    0.0001   -0.0000    0.0000   -0.0000   -0.0004
       21 FE2    3px        0.0000    0.0236    0.0146   -0.0000    0.0068    0.0043   -0.0000    0.0000   -0.0000   -0.0080
       22 FE2    4px        0.0000    0.0390    0.0241    0.0000   -0.0012   -0.0008   -0.0000   -0.0000    0.0000    0.1831
       23 FE2    5px        0.0000    0.0011    0.0007    0.0000    0.0012    0.0008    0.0000    0.0000   -0.0000   -0.0027
       24 FE2    2py       -0.0000   -0.0007    0.0012    0.0000   -0.0001    0.0001   -0.0000   -0.0000    0.0000   -0.0006
       25 FE2    3py       -0.0000   -0.0146    0.0236    0.0000   -0.0043    0.0068   -0.0000    0.0000    0.0000   -0.0129
       26 FE2    4py       -0.0000   -0.0241    0.0390   -0.0000    0.0008   -0.0012    0.0000   -0.0000   -0.0000    0.2957
       27 FE2    5py       -0.0000   -0.0007    0.0011   -0.0000   -0.0008    0.0012   -0.0000    0.0000    0.0000   -0.0044
       28 FE2    2pz        0.0010   -0.0000    0.0000   -0.0006   -0.0000    0.0000   -0.0000    0.0000   -0.0006   -0.0000
       29 FE2    3pz        0.0158   -0.0000    0.0000   -0.0175   -0.0000    0.0000   -0.0000    0.0000   -0.0174   -0.0000
       30 FE2    4pz       -0.0006   -0.0000    0.0000    0.0395    0.0000   -0.0000    0.0000   -0.0000    0.0075    0.0000
       31 FE2    5pz       -0.0026   -0.0000    0.0000    0.0009   -0.0000    0.0000    0.0000   -0.0000   -0.0025   -0.0000
       32 FE2    3d2-       0.0000   -0.0000   -0.0000    0.0000   -0.0000   -0.0000    0.2930    0.9545   -0.0000    0.0000
       33 FE2    4d2-       0.0000   -0.0000   -0.0000    0.0000    0.0000   -0.0000   -0.0162   -0.0528   -0.0000   -0.0000
       34 FE2    3d1-      -0.0000   -0.4464    0.7211   -0.0000   -0.2788    0.4408   -0.0000    0.0000    0.0000   -0.0803
       35 FE2    4d1-      -0.0000   -0.0164    0.0265    0.0000    0.0123   -0.0195    0.0000   -0.0000   -0.0000    0.5087
       36 FE2    3d0        0.0130   -0.0000    0.0000    0.6877   -0.0000    0.0000    0.0000   -0.0000   -0.7314   -0.0000
       37 FE2    4d0        0.0011   -0.0000    0.0000   -0.0149    0.0000   -0.0000   -0.0000    0.0000    0.0418    0.0000
       38 FE2    3d1+       0.0000    0.7211    0.4464    0.0000    0.4408    0.2788   -0.0000    0.0000   -0.0000   -0.0497
       39 FE2    4d1+       0.0000    0.0265    0.0164   -0.0000   -0.0195   -0.0123   -0.0000   -0.0000    0.0000    0.3149
       40 FE2    3d2+      -0.0000   -0.0000    0.0000   -0.0000   -0.0000    0.0000    0.9545   -0.2930    0.0000   -0.0000
       41 FE2    4d2+      -0.0000   -0.0000    0.0000   -0.0000    0.0000   -0.0000   -0.0528    0.0162    0.0000    0.0000
       42 FE2    4f3-       0.0000    0.0000    0.0000    0.0000    0.0000    0.0000   -0.0000    0.0000    0.0000   -0.0000
       43 FE2    4f2-       0.0000   -0.0000   -0.0000    0.0000   -0.0000   -0.0000    0.0003    0.0009    0.0000    0.0000
       44 FE2    4f1-      -0.0000   -0.0019    0.0030   -0.0000    0.0002   -0.0002   -0.0000    0.0000    0.0000    0.0158
       45 FE2    4f0        0.0007   -0.0000    0.0000    0.0029    0.0000   -0.0000    0.0000   -0.0000    0.0004   -0.0000
       46 FE2    4f1+       0.0000    0.0030    0.0019    0.0000   -0.0002   -0.0002    0.0000    0.0000   -0.0000    0.0098
       47 FE2    4f2+      -0.0000   -0.0000    0.0000   -0.0000   -0.0000    0.0000    0.0009   -0.0003   -0.0000   -0.0000
       48 FE2    4f3+       0.0000    0.0000   -0.0000    0.0000    0.0000   -0.0000    0.0000    0.0000    0.0000    0.0000
 
          Orbital           21        22        23        24        25        26        27        28        29        30    
          Energy            0.0928    1.3341    2.0279    2.4587    2.4587    0.1020    2.2007    2.2007    1.6897    1.7008
          Occ. No.          0.0221    0.0049    0.0002    0.0002    0.0002    0.0000    0.0000    0.0000    0.0000    0.0000
 
        1 O1     1s         0.0000   -0.0030    0.0062   -0.0000    0.0000   -0.0022    0.0000   -0.0000   -0.0504    0.0699
        2 O1     2s         0.0000   -0.0267    0.0890   -0.0000    0.0000   -0.0648    0.0000   -0.0000   -0.4469    0.6768
        3 O1     3s         0.0000    0.2457    0.0618   -0.0000    0.0000   -0.1041    0.0000   -0.0000   -0.4209    0.9124
        4 O1     2px       -0.0917   -0.0000   -0.0000   -0.0405   -0.0249    0.0000   -0.0576   -0.0934    0.0000    0.0000
        5 O1     3px        0.4228    0.0000   -0.0000   -0.1649   -0.1016    0.0000   -0.1467   -0.2382    0.0000    0.0000
        6 O1     2py        0.0568    0.0000    0.0000    0.0249   -0.0405   -0.0000   -0.0934    0.0576   -0.0000   -0.0000
        7 O1     3py       -0.2618   -0.0000    0.0001    0.1016   -0.1649   -0.0001   -0.2382    0.1467   -0.0000   -0.0000
        8 O1     2pz       -0.0000    0.0356   -0.1302    0.0001   -0.0000    0.1885    0.0000   -0.0000    0.1712   -0.4453
        9 O1     3pz        0.0000   -0.1265   -0.0679    0.0000   -0.0000    0.2205    0.0000   -0.0000    0.0368   -0.3800
       10 O1     3d2-      -0.0000    0.0000    0.0000   -0.0000   -0.0000   -0.0000   -0.0000   -0.0000   -0.0000   -0.0000
       11 O1     3d1-       0.0252    0.0001    0.0000   -0.0021    0.0034    0.0000   -0.0138    0.0085   -0.0000    0.0000
       12 O1     3d0       -0.0000    0.9389    0.1596   -0.0001    0.0001   -0.1512    0.0000   -0.0000   -0.0718    0.2391
       13 O1     3d1+      -0.0408   -0.0000   -0.0000    0.0034    0.0021   -0.0000   -0.0085   -0.0138    0.0000   -0.0000
       14 O1     3d2+      -0.0000   -0.0000   -0.0000   -0.0000    0.0000    0.0000    0.0000   -0.0000    0.0000    0.0000
       15 FE2    1s         0.0000   -0.0012   -0.0005    0.0000   -0.0000    0.0013    0.0000   -0.0000    0.0008   -0.0031
       16 FE2    2s         0.0000   -0.0091   -0.0040    0.0000   -0.0000    0.0093    0.0000   -0.0000    0.0060   -0.0225
       17 FE2    3s         0.0000   -0.0518   -0.0208    0.0000   -0.0000    0.0439    0.0000   -0.0000    0.0335   -0.1183
       18 FE2    4s        -0.0001    0.0298   -0.2108    0.0001   -0.0001    0.7804   -0.0000    0.0000    0.3856   -0.7157
       19 FE2    5s         0.0000   -0.0075    0.0893   -0.0000    0.0000   -0.6308   -0.0000    0.0000    0.0442   -0.0536
       20 FE2    2px       -0.0006   -0.0000    0.0000    0.0001    0.0001   -0.0000    0.0002    0.0003   -0.0000   -0.0000
       21 FE2    3px       -0.0129   -0.0000    0.0000    0.0040    0.0025   -0.0000    0.0051    0.0083   -0.0000   -0.0000
       22 FE2    4px        0.2957    0.0000    0.0001    0.3309    0.2038    0.0000    0.0514    0.0835   -0.0000   -0.0000
       23 FE2    5px       -0.0044   -0.0000   -0.0001   -0.4251   -0.2619    0.0000    0.4539    0.7369   -0.0000   -0.0000
       24 FE2    2py        0.0004    0.0000   -0.0000   -0.0001    0.0001    0.0000    0.0003   -0.0002    0.0000    0.0000
       25 FE2    3py        0.0080    0.0000   -0.0000   -0.0025    0.0040    0.0000    0.0083   -0.0051    0.0000    0.0000
       26 FE2    4py       -0.1831   -0.0000   -0.0002   -0.2038    0.3309   -0.0000    0.0835   -0.0514    0.0000    0.0000
       27 FE2    5py        0.0027    0.0000    0.0003    0.2619   -0.4251   -0.0000    0.7369   -0.4539    0.0000    0.0000
       28 FE2    2pz        0.0000   -0.0020   -0.0005    0.0000   -0.0000    0.0017    0.0000   -0.0000    0.0014   -0.0047
       29 FE2    3pz        0.0000   -0.0476   -0.0103    0.0000   -0.0000    0.0330    0.0000   -0.0000    0.0332   -0.0998
       30 FE2    4pz       -0.0000    0.0655   -0.5773    0.0002   -0.0002    0.1610    0.0000   -0.0000    0.5275   -0.9527
       31 FE2    5pz        0.0000    0.0000    0.4673   -0.0002    0.0002    0.0114   -0.0000    0.0000    0.9381    0.0482
       32 FE2    3d2-       0.0000   -0.0000   -0.0000    0.0000    0.0000    0.0000    0.0000    0.0000   -0.0000    0.0000
       33 FE2    4d2-      -0.0000    0.0000   -0.0000    0.0000    0.0000    0.0000    0.0000    0.0000   -0.0000    0.0000
       34 FE2    3d1-       0.0497    0.0000   -0.0000   -0.0051    0.0083    0.0000    0.0206   -0.0127    0.0000    0.0000
       35 FE2    4d1-      -0.3149   -0.0000    0.0000    0.0257   -0.0418   -0.0000    0.1002   -0.0617   -0.0000    0.0000
       36 FE2    3d0        0.0000   -0.0708   -0.0196    0.0000   -0.0000    0.0161   -0.0000    0.0000    0.0728   -0.1780
       37 FE2    4d0       -0.0000    0.0437    0.0182   -0.0000    0.0000   -0.3414   -0.0000    0.0000    0.2845   -0.9356
       38 FE2    3d1+      -0.0803   -0.0000    0.0000    0.0083    0.0051   -0.0000    0.0127    0.0206   -0.0000   -0.0000
       39 FE2    4d1+       0.5087    0.0000   -0.0000   -0.0418   -0.0257    0.0000    0.0617    0.1002    0.0000   -0.0000
       40 FE2    3d2+       0.0000    0.0000    0.0000    0.0000   -0.0000   -0.0000   -0.0000    0.0000    0.0000   -0.0000
       41 FE2    4d2+      -0.0000   -0.0000    0.0000    0.0000   -0.0000   -0.0000   -0.0000    0.0000    0.0000   -0.0000
       42 FE2    4f3-      -0.0000    0.0000   -0.0000   -0.0000   -0.0000   -0.0000   -0.0000   -0.0000    0.0000    0.0000
       43 FE2    4f2-       0.0000    0.0000    0.0000   -0.0000   -0.0000    0.0000   -0.0000   -0.0000   -0.0000   -0.0000
       44 FE2    4f1-      -0.0098   -0.0000   -0.0004   -0.4007    0.6504    0.0000    0.4561   -0.2809    0.0000    0.0000
       45 FE2    4f0        0.0000   -0.0056    0.6816   -0.0003    0.0003    0.2732    0.0000   -0.0000   -0.3171   -0.4602
       46 FE2    4f1+       0.0158    0.0000    0.0001    0.6504    0.4007   -0.0000    0.2809    0.4561   -0.0000   -0.0000
       47 FE2    4f2+       0.0000   -0.0000   -0.0000   -0.0000    0.0000   -0.0000    0.0000   -0.0000    0.0000    0.0000
       48 FE2    4f3+      -0.0000    0.0000   -0.0000   -0.0000    0.0000   -0.0000    0.0000   -0.0000    0.0000    0.0000
 
          Orbital           31        32        33        34        35        36        37        38        39        40    
          Energy            0.3565   -0.1496    0.2296    0.2343    0.3390    0.5677    0.5829    0.4870    0.5876    0.4893
          Occ. No.          0.0000    0.0000    0.0000    0.0000    0.0000    0.0000    0.0000    0.0000    0.0000    0.0000
 
        1 O1     1s         0.0104   -0.0024   -0.0000    0.0000    0.0294    0.0003   -0.0000   -0.0000   -0.0000    0.0000
        2 O1     2s         0.0982   -0.0133   -0.0000    0.0000    0.2862   -0.0315   -0.0000   -0.0000   -0.0000    0.0001
        3 O1     3s         0.0026    0.1419   -0.0000    0.0000    0.4436   -0.9232    0.0001   -0.0000   -0.0001    0.0000
        4 O1     2px       -0.0000    0.0000    0.0286    0.0515   -0.0000   -0.0000   -0.1914   -0.0079   -0.1075   -0.0016
        5 O1     3px       -0.0000    0.0000    0.1107    0.2009   -0.0002   -0.0001   -0.8076   -0.0331   -0.4535   -0.0074
        6 O1     2py        0.0000    0.0000    0.0459   -0.0320    0.0000    0.0000    0.1069   -0.0122   -0.1920   -0.0047
        7 O1     3py        0.0001   -0.0000    0.1776   -0.1249    0.0000    0.0001    0.4511   -0.0516   -0.8100   -0.0190
        8 O1     2pz        0.0316   -0.0642    0.0000   -0.0000   -0.2671   -0.0728    0.0000    0.0000    0.0000   -0.0001
        9 O1     3pz        0.1093   -0.2273    0.0001   -0.0001   -1.2363   -0.1658    0.0002    0.0001    0.0001   -0.0002
       10 O1     3d2-      -0.0000    0.0000    0.0000   -0.0001   -0.0000   -0.0000    0.0053    0.0110   -0.0073    0.0304
       11 O1     3d1-      -0.0000   -0.0000   -0.0180    0.0099   -0.0002   -0.0001    0.0431   -0.0049   -0.0800    0.0128
       12 O1     3d0        0.0122   -0.0358    0.0000    0.0000   -0.0583    0.2759   -0.0000   -0.0000    0.0000    0.0000
       13 O1     3d1+       0.0000    0.0000   -0.0112   -0.0159   -0.0000    0.0000   -0.0730    0.0007   -0.0433   -0.0125
       14 O1     3d2+       0.0000   -0.0000   -0.0000   -0.0001    0.0000    0.0000    0.0039    0.0330   -0.0055   -0.0148
       15 FE2    1s         0.0005   -0.0011    0.0000   -0.0000   -0.0059    0.0000    0.0000    0.0000    0.0000   -0.0000
       16 FE2    2s         0.0032   -0.0081    0.0000   -0.0000   -0.0422    0.0004    0.0000    0.0000    0.0000   -0.0000
       17 FE2    3s         0.0140   -0.0417    0.0000   -0.0000   -0.2074    0.0077    0.0000    0.0000    0.0000   -0.0000
       18 FE2    4s        -0.0670    0.5560    0.0000   -0.0001   -0.7133    0.1378    0.0001    0.0001    0.0001   -0.0001
       19 FE2    5s        -0.6446    0.4897   -0.0000    0.0000   -0.0607    0.1721    0.0000   -0.0000   -0.0000   -0.0000
       20 FE2    2px        0.0000   -0.0000   -0.0002   -0.0004    0.0000    0.0000    0.0013    0.0001    0.0007    0.0000
       21 FE2    3px        0.0000   -0.0000   -0.0050   -0.0088    0.0000    0.0000    0.0261    0.0011    0.0147    0.0001
       22 FE2    4px       -0.0000   -0.0000   -0.4602   -0.7469    0.0001    0.0000    0.2682    0.0120    0.1623    0.0016
       23 FE2    5px       -0.0000   -0.0000   -0.1096   -0.1768    0.0000    0.0000    0.0226    0.0013    0.0156   -0.0002
       24 FE2    2py       -0.0000    0.0000   -0.0003    0.0002   -0.0000   -0.0000   -0.0007    0.0001    0.0013    0.0000
       25 FE2    3py       -0.0000    0.0000   -0.0081    0.0055   -0.0000   -0.0000   -0.0145    0.0017    0.0261    0.0008
       26 FE2    4py        0.0000   -0.0000   -0.7389    0.4651   -0.0001   -0.0001   -0.1484    0.0185    0.2877    0.0081
       27 FE2    5py        0.0000   -0.0000   -0.1760    0.1101   -0.0000   -0.0000   -0.0122    0.0018    0.0272    0.0012
       28 FE2    2pz        0.0004   -0.0014    0.0000   -0.0000   -0.0066    0.0006    0.0000    0.0000    0.0000   -0.0000
       29 FE2    3pz        0.0054   -0.0262    0.0000   -0.0000   -0.1238    0.0158    0.0000    0.0000    0.0000   -0.0000
       30 FE2    4pz       -0.4611   -0.5327    0.0000   -0.0000   -0.4086   -0.0125    0.0001    0.0000   -0.0000   -0.0001
       31 FE2    5pz       -0.0522   -0.0997    0.0000   -0.0000   -0.0466    0.0318    0.0000    0.0000   -0.0000   -0.0000
       32 FE2    3d2-      -0.0000    0.0000    0.0000   -0.0000   -0.0000   -0.0000   -0.0001    0.0136   -0.0019    0.0531
[...]
      Spin density orbitals for root   1 are written to the SPDORB.1 file
 
--- Stop Module: rasscf at Tue Dec 24 02:56:54 2024 /rc=_RC_ALL_IS_WELL_ ---
*** files: 2.37.LprOrb 2.37.rasscf.molden 2.37.rasscf.molden.1 2.37.LoProp.molden 2.37.RasOrb 2.37.RasOrb.1 2.37.rasscf.h5 2.37.SpdOrb.1 xmldump
    saved to directory /home/grierjones/DDCASPT2/iron_oxo_DDCASPT2/cluster/2.37
--- Module rasscf spent 1 minute 36 seconds ---

>>> COPY /tmp/2.37/2.37.rasscf.h5 /home/grierjones/DDCASPT2/iron_oxo_DDCASPT2/cluster/2.37/

>>> COPY /tmp/2.37/GMJ_Fock_MO.csv /home/grierjones/DDCASPT2/iron_oxo_DDCASPT2/cluster/2.37/2.37.GMJ_Fock_MO.csv

>>> COPY /tmp/2.37/GMJ_PT2_Fock_MO.csv /home/grierjones/DDCASPT2/iron_oxo_DDCASPT2/cluster/2.37/2.37.GMJ_PT2_Fock_MO.csv

*** symbolic link created: INPORB -> 2.37.RasOrb
--- Start Module: motra at Tue Dec 24 02:56:54 2024 ---
 
()()()()()()()()()()()()()()()()()()()()()()()()()()()()()()()()()()()()()()()()()()()()()()()()()()

                                               &MOTRA

                                   only a single process is used
                       available to each process: 2.0 GB of memory, 1 thread?
()()()()()()()()()()()()()()()()()()()()()()()()()()()()()()()()()()()()()()()()()()()()()()()()()()
 
 
      *** WARNING: Default frozen orbitals is overwritten by user input.
      *** Default values:   7
 
      Header of the integral files:
      
       Integrals generated by seward 4.2.0  , Tue Dec 24 02:55:16 2024
 
 
      Header of MO coefficients source file:
      * RASSCF average (pseudo-natural) orbitals                                      
 
 
      Cartesian coordinates in Angstrom:
      -----------------------------------------------------
      No.  Label        X            Y            Z        
      -----------------------------------------------------
       1   O1         0.00000000   0.00000000   1.98277000
       2   FE2        0.00000000   0.00000000  -0.38277000
      -----------------------------------------------------
      Nuclear repulsion energy =   46.53011990
 
      Orbital specifications:
      -----------------------
 
      Symmetry species:              1
      Number of basis functions:    48
      Frozen orbitals:               0
      Deleted orbitals:              0
      Number of orbitals used:      48

       SYMMETRY  BASIS FUNCTIONS       ORBITALS      INTEGRALS   CPU(SEC)  I/O(SEC)
 
        1 1 1 1   48  48  48  48    48  48  48  48      692076       0.00      0.00

       TOTAL CPU TIME(SEC)    0.31TOTAL I/O TIME(SEC)    0.86
 
--- Stop Module: motra at Tue Dec 24 02:56:55 2024 /rc=_RC_ALL_IS_WELL_ ---
*** files: xmldump
    saved to directory /home/grierjones/DDCASPT2/iron_oxo_DDCASPT2/cluster/2.37

>>> COPY /tmp/2.37/GMJ_one_int_indx.csv /home/grierjones/DDCASPT2/iron_oxo_DDCASPT2/cluster/2.37/2.37.GMJ_one_int_indx.csv

>>> COPY /tmp/2.37/GMJ_one_int.csv /home/grierjones/DDCASPT2/iron_oxo_DDCASPT2/cluster/2.37/2.37.GMJ_one_int.csv

>>> COPY /tmp/2.37/GMJ_two_int_indx.csv /home/grierjones/DDCASPT2/iron_oxo_DDCASPT2/cluster/2.37/2.37.GMJ_two_int_indx.csv

>>> COPY /tmp/2.37/GMJ_two_int.csv /home/grierjones/DDCASPT2/iron_oxo_DDCASPT2/cluster/2.37/2.37.GMJ_two_int.csv

*** symbolic link created: INPORB -> 2.37.RasOrb
--- Start Module: caspt2 at Tue Dec 24 02:56:55 2024 ---
 
()()()()()()()()()()()()()()()()()()()()()()()()()()()()()()()()()()()()()()()()()()()()()()()()()()

                                              &CASPT2

                                   only a single process is used
                       available to each process: 2.0 GB of memory, 1 thread?
()()()()()()()()()()()()()()()()()()()()()()()()()()()()()()()()()()()()()()()()()()()()()()()()()()
 
 Cholesky algorithm in CASPT2 =    1
 
 ###############################################################################
 ###############################################################################
 ###                                                                         ###
 ###                                                                         ###
 ###    User changed nr of frozen orbitals.                                  ###
 ###                                                                         ###
 ###                                                                         ###
 ###############################################################################
 ###############################################################################
 
++    Wave function specifications:
      -----------------------------
 
      Number of closed shell electrons          22
      Number of electrons in active shells      10
      Max number of holes in RAS1 space          0
      Max number of electrons in RAS3 space      0
      Number of inactive orbitals               11
      Number of active orbitals                 14
      Number of secondary orbitals              23
      Spin quantum number                      2.0
      State symmetry                             1
      Number of CSFs                        975975
      Number of root(s) available                1
      Root passed to geometry opt.               1
      A file JOBMIX will be created.
      This is a CASSCF or RASSCF reference function
--
 
++    Orbital specifications:
      -----------------------
 
      Symmetry species                           1
                                                 a
      Frozen orbitals                            0
      Inactive orbitals                         11
      Active orbitals                           14
      Secondary orbitals                        23
      Deleted orbitals                           0
      Number of basis functions                 48
--
 
      Type of Fock operator: STANDARD
      Type of 0-order Hamiltonian: STANDARD WITH DEFAULT IPEA
        "IP-EA" denominator shift =      0.25
      The input orbitals and the CI vector will be transformed.
 
--------------------------------------------------------------------------------
 Estimated memory requirements:
  POLY3 :                227658189
  RHS:                     4146972
  SIGMA :                   646704
  PRPCTL:                        0
 Available workspace:    229020647
 
++ CASPT2 computation for group   1
 
********************************************************************************
 Multi-State initialization phase begins for group   1
--------------------------------------------------------------------------------
********************************************************************************
 Compute H0 matrices for state    1
--------------------------------------------------------------------------------
--------------------------------------------------------------------------------
 H0 matrices have been computed.
 
********************************************************************************
  CASPT2 EQUATION SOLUTION
--------------------------------------------------------------------------------
 
  Total nr of CASPT2 parameters:
   Before reduction:      408969
   After  reduction:      408969
 
 The contributions to the second order correlation energy in atomic units.
-----------------------------------------------------------------------------------------------------------------------------
  IT.      VJTU        VJTI        ATVX        AIVX        VJAI        BVAT        BJAT        BJAI        TOTAL       RNORM  
-----------------------------------------------------------------------------------------------------------------------------
   1    -0.004227   -0.029962   -0.015948   -0.178765   -0.018215   -0.077249   -0.018737   -0.043896   -0.387000    0.014532
   2    -0.004260   -0.029999   -0.016276   -0.179207   -0.018268   -0.077450   -0.018921   -0.043977   -0.388357    0.003275
   3    -0.004262   -0.030005   -0.016339   -0.179299   -0.018269   -0.077450   -0.018936   -0.043983   -0.388542    0.000788
   4    -0.004260   -0.030004   -0.016337   -0.179277   -0.018267   -0.077435   -0.018928   -0.043979   -0.388486    0.000203
   5    -0.004260   -0.030003   -0.016336   -0.179271   -0.018266   -0.077434   -0.018927   -0.043978   -0.388476    0.000047
   6    -0.004260   -0.030003   -0.016335   -0.179273   -0.018266   -0.077435   -0.018928   -0.043978   -0.388480    0.000011
   7    -0.004260   -0.030003   -0.016335   -0.179274   -0.018266   -0.077435   -0.018928   -0.043978   -0.388480    0.000003
-------------------------------------------------------------------------------------------------------------------
 
  FINAL CASPT2 RESULT:
 
  Correlation energy /Case, /Symm, and sums:
 VJTU     -0.00426028 -0.00426028
 VJTIP    -0.01041569 -0.01041569
 VJTIM    -0.01958780 -0.01958780
 ATVX     -0.01633541 -0.01633541
 AIVX     -0.17927341 -0.17927341
 VJAIP    -0.01448187 -0.01448187
 VJAIM    -0.00378419 -0.00378419
 BVATP    -0.02173000 -0.02173000
 BVATM    -0.05570528 -0.05570528
 BJATP    -0.01152631 -0.01152631
 BJATM    -0.00740141 -0.00740141
 BJAIP    -0.02973495 -0.02973495
 BJAIM    -0.01424335 -0.01424335
 Summed:  -0.38847994 -0.38847994
 
      Reference energy:       -1345.4950527730
      E2 (Non-variational):      -0.3884799413
      E2 (Variational):          -0.3884799277
      Total energy:           -1345.8835327008
      Residual norm:              0.0000006203
      Reference weight:           0.93795
 
      Contributions to the CASPT2 correlation energy
      Active & Virtual Only:         -0.0937706929
      One Inactive Excited:          -0.2024614040
      Two Inactive Excited:          -0.0922478444
 
 
++ Denominators, etc.
----------------------------------------------------------------------------------------------------
 Report on small energy denominators, large coefficients, and large energy contributions.
CASE  SYMM ACTIVE-MIX  NON-ACTIVE INDICES          DENOMINATOR     RHS VALUE       COEFFICIENT     CONTRIBUTION
ATVX     1  Mu1.0001  Se1.026                       0.24845465     -0.00000000      0.00000001     -0.00000000
ATVX     1  Mu1.0002  Se1.026                       0.24845465      0.00000000     -0.00000002     -0.00000000
ATVX     1  Mu1.0003  Se1.026                       0.26721095     -0.00000000      0.00000000     -0.00000000
ATVX     1  Mu1.0230  Se1.031                       2.06199088     -0.06830297      0.03228602     -0.00220523
ATVX     1  Mu1.0229  Se1.032                       2.06199088      0.06830297     -0.03228602     -0.00220523
AIVX     1  Mu1.0091  In1.011 Se1.033               3.56724764     -0.09346982      0.02674612     -0.00249996
AIVX     1  Mu1.0050  In1.011 Se1.037               3.73191277      0.12234184     -0.03217561     -0.00393642
AIVX     1  Mu1.0031  In1.011 Se1.038               3.55650992     -0.15827335      0.04366145     -0.00691044
BVATM    1  Mu1.0019  Se1.044 Se1.043               8.70922511     -0.21831054      0.02506663     -0.00547231
--
 
   (Skipping property calculation,
    use PROP keyword to activate)
--
 
  Total CASPT2 energies:
::    CASPT2 Root  1     Total energy:  -1345.88353270
 
  A NEW JOBIPH FILE NAMED 'JOBMIX' IS PREPARED.
********************************************************************************
--- Stop Module: caspt2 at Tue Dec 24 03:02:29 2024 /rc=_RC_ALL_IS_WELL_ ---
*** files: xmldump
    saved to directory /home/grierjones/DDCASPT2/iron_oxo_DDCASPT2/cluster/2.37
--- Module caspt2 spent 5 minutes 33 seconds ---

>>> EXPORT i = B

>>> EXPORT j = P

>>> IF (-FILE GMJ_e2_${i}_${j}.csv)

>>> COPY /tmp/2.37/GMJ_RHS_B_P.csv /home/grierjones/DDCASPT2/iron_oxo_DDCASPT2/cluster/2.37/GMJ_RHS_B_P.csv

>>> COPY /tmp/2.37/GMJ_IVECW_B_P.csv /home/grierjones/DDCASPT2/iron_oxo_DDCASPT2/cluster/2.37/GMJ_IVECW_B_P.csv

>>> COPY /tmp/2.37/GMJ_IVECX_B_P.csv /home/grierjones/DDCASPT2/iron_oxo_DDCASPT2/cluster/2.37/GMJ_IVECX_B_P.csv

>>> COPY /tmp/2.37/GMJ_IVECC2_B_P.csv /home/grierjones/DDCASPT2/iron_oxo_DDCASPT2/cluster/2.37/GMJ_IVECC2_B_P.csv

>>> COPY /tmp/2.37/GMJ_e2_B_P.csv /home/grierjones/DDCASPT2/iron_oxo_DDCASPT2/cluster/2.37/GMJ_e2_B_P.csv

>>> END FOREACH

>>> EXPORT j = M

>>> IF (-FILE GMJ_e2_${i}_${j}.csv)

>>> COPY /tmp/2.37/GMJ_RHS_B_M.csv /home/grierjones/DDCASPT2/iron_oxo_DDCASPT2/cluster/2.37/GMJ_RHS_B_M.csv

>>> COPY /tmp/2.37/GMJ_IVECW_B_M.csv /home/grierjones/DDCASPT2/iron_oxo_DDCASPT2/cluster/2.37/GMJ_IVECW_B_M.csv

>>> COPY /tmp/2.37/GMJ_IVECX_B_M.csv /home/grierjones/DDCASPT2/iron_oxo_DDCASPT2/cluster/2.37/GMJ_IVECX_B_M.csv

>>> COPY /tmp/2.37/GMJ_IVECC2_B_M.csv /home/grierjones/DDCASPT2/iron_oxo_DDCASPT2/cluster/2.37/GMJ_IVECC2_B_M.csv

>>> COPY /tmp/2.37/GMJ_e2_B_M.csv /home/grierjones/DDCASPT2/iron_oxo_DDCASPT2/cluster/2.37/GMJ_e2_B_M.csv

>>> END FOREACH

>>> END FOREACH

>>> EXPORT i = E

>>> EXPORT j = P

>>> IF (-FILE GMJ_e2_${i}_${j}.csv)

>>> COPY /tmp/2.37/GMJ_RHS_E_P.csv /home/grierjones/DDCASPT2/iron_oxo_DDCASPT2/cluster/2.37/GMJ_RHS_E_P.csv

>>> COPY /tmp/2.37/GMJ_IVECW_E_P.csv /home/grierjones/DDCASPT2/iron_oxo_DDCASPT2/cluster/2.37/GMJ_IVECW_E_P.csv

>>> COPY /tmp/2.37/GMJ_IVECX_E_P.csv /home/grierjones/DDCASPT2/iron_oxo_DDCASPT2/cluster/2.37/GMJ_IVECX_E_P.csv

>>> COPY /tmp/2.37/GMJ_IVECC2_E_P.csv /home/grierjones/DDCASPT2/iron_oxo_DDCASPT2/cluster/2.37/GMJ_IVECC2_E_P.csv

>>> COPY /tmp/2.37/GMJ_e2_E_P.csv /home/grierjones/DDCASPT2/iron_oxo_DDCASPT2/cluster/2.37/GMJ_e2_E_P.csv

>>> END FOREACH

>>> EXPORT j = M

>>> IF (-FILE GMJ_e2_${i}_${j}.csv)

>>> COPY /tmp/2.37/GMJ_RHS_E_M.csv /home/grierjones/DDCASPT2/iron_oxo_DDCASPT2/cluster/2.37/GMJ_RHS_E_M.csv

>>> COPY /tmp/2.37/GMJ_IVECW_E_M.csv /home/grierjones/DDCASPT2/iron_oxo_DDCASPT2/cluster/2.37/GMJ_IVECW_E_M.csv

>>> COPY /tmp/2.37/GMJ_IVECX_E_M.csv /home/grierjones/DDCASPT2/iron_oxo_DDCASPT2/cluster/2.37/GMJ_IVECX_E_M.csv

>>> COPY /tmp/2.37/GMJ_IVECC2_E_M.csv /home/grierjones/DDCASPT2/iron_oxo_DDCASPT2/cluster/2.37/GMJ_IVECC2_E_M.csv

>>> COPY /tmp/2.37/GMJ_e2_E_M.csv /home/grierjones/DDCASPT2/iron_oxo_DDCASPT2/cluster/2.37/GMJ_e2_E_M.csv

>>> END FOREACH

>>> END FOREACH

>>> EXPORT i = F

>>> EXPORT j = P

>>> IF (-FILE GMJ_e2_${i}_${j}.csv)

>>> COPY /tmp/2.37/GMJ_RHS_F_P.csv /home/grierjones/DDCASPT2/iron_oxo_DDCASPT2/cluster/2.37/GMJ_RHS_F_P.csv

>>> COPY /tmp/2.37/GMJ_IVECW_F_P.csv /home/grierjones/DDCASPT2/iron_oxo_DDCASPT2/cluster/2.37/GMJ_IVECW_F_P.csv

>>> COPY /tmp/2.37/GMJ_IVECX_F_P.csv /home/grierjones/DDCASPT2/iron_oxo_DDCASPT2/cluster/2.37/GMJ_IVECX_F_P.csv

>>> COPY /tmp/2.37/GMJ_IVECC2_F_P.csv /home/grierjones/DDCASPT2/iron_oxo_DDCASPT2/cluster/2.37/GMJ_IVECC2_F_P.csv

>>> COPY /tmp/2.37/GMJ_e2_F_P.csv /home/grierjones/DDCASPT2/iron_oxo_DDCASPT2/cluster/2.37/GMJ_e2_F_P.csv

>>> END FOREACH

>>> EXPORT j = M

>>> IF (-FILE GMJ_e2_${i}_${j}.csv)

>>> COPY /tmp/2.37/GMJ_RHS_F_M.csv /home/grierjones/DDCASPT2/iron_oxo_DDCASPT2/cluster/2.37/GMJ_RHS_F_M.csv

>>> COPY /tmp/2.37/GMJ_IVECW_F_M.csv /home/grierjones/DDCASPT2/iron_oxo_DDCASPT2/cluster/2.37/GMJ_IVECW_F_M.csv

>>> COPY /tmp/2.37/GMJ_IVECX_F_M.csv /home/grierjones/DDCASPT2/iron_oxo_DDCASPT2/cluster/2.37/GMJ_IVECX_F_M.csv

>>> COPY /tmp/2.37/GMJ_IVECC2_F_M.csv /home/grierjones/DDCASPT2/iron_oxo_DDCASPT2/cluster/2.37/GMJ_IVECC2_F_M.csv

>>> COPY /tmp/2.37/GMJ_e2_F_M.csv /home/grierjones/DDCASPT2/iron_oxo_DDCASPT2/cluster/2.37/GMJ_e2_F_M.csv

>>> END FOREACH

>>> END FOREACH

>>> EXPORT i = G

>>> EXPORT j = P

>>> IF (-FILE GMJ_e2_${i}_${j}.csv)

>>> COPY /tmp/2.37/GMJ_RHS_G_P.csv /home/grierjones/DDCASPT2/iron_oxo_DDCASPT2/cluster/2.37/GMJ_RHS_G_P.csv

>>> COPY /tmp/2.37/GMJ_IVECW_G_P.csv /home/grierjones/DDCASPT2/iron_oxo_DDCASPT2/cluster/2.37/GMJ_IVECW_G_P.csv

>>> COPY /tmp/2.37/GMJ_IVECX_G_P.csv /home/grierjones/DDCASPT2/iron_oxo_DDCASPT2/cluster/2.37/GMJ_IVECX_G_P.csv

>>> COPY /tmp/2.37/GMJ_IVECC2_G_P.csv /home/grierjones/DDCASPT2/iron_oxo_DDCASPT2/cluster/2.37/GMJ_IVECC2_G_P.csv

>>> COPY /tmp/2.37/GMJ_e2_G_P.csv /home/grierjones/DDCASPT2/iron_oxo_DDCASPT2/cluster/2.37/GMJ_e2_G_P.csv

>>> END FOREACH

>>> EXPORT j = M

>>> IF (-FILE GMJ_e2_${i}_${j}.csv)

>>> COPY /tmp/2.37/GMJ_RHS_G_M.csv /home/grierjones/DDCASPT2/iron_oxo_DDCASPT2/cluster/2.37/GMJ_RHS_G_M.csv

>>> COPY /tmp/2.37/GMJ_IVECW_G_M.csv /home/grierjones/DDCASPT2/iron_oxo_DDCASPT2/cluster/2.37/GMJ_IVECW_G_M.csv

>>> COPY /tmp/2.37/GMJ_IVECX_G_M.csv /home/grierjones/DDCASPT2/iron_oxo_DDCASPT2/cluster/2.37/GMJ_IVECX_G_M.csv

>>> COPY /tmp/2.37/GMJ_IVECC2_G_M.csv /home/grierjones/DDCASPT2/iron_oxo_DDCASPT2/cluster/2.37/GMJ_IVECC2_G_M.csv

>>> COPY /tmp/2.37/GMJ_e2_G_M.csv /home/grierjones/DDCASPT2/iron_oxo_DDCASPT2/cluster/2.37/GMJ_e2_G_M.csv

>>> END FOREACH

>>> END FOREACH

>>> EXPORT i = H

>>> EXPORT j = P

>>> IF (-FILE GMJ_e2_${i}_${j}.csv)

>>> COPY /tmp/2.37/GMJ_RHS_H_P.csv /home/grierjones/DDCASPT2/iron_oxo_DDCASPT2/cluster/2.37/GMJ_RHS_H_P.csv

>>> COPY /tmp/2.37/GMJ_IVECW_H_P.csv /home/grierjones/DDCASPT2/iron_oxo_DDCASPT2/cluster/2.37/GMJ_IVECW_H_P.csv

>>> COPY /tmp/2.37/GMJ_IVECX_H_P.csv /home/grierjones/DDCASPT2/iron_oxo_DDCASPT2/cluster/2.37/GMJ_IVECX_H_P.csv

>>> COPY /tmp/2.37/GMJ_IVECC2_H_P.csv /home/grierjones/DDCASPT2/iron_oxo_DDCASPT2/cluster/2.37/GMJ_IVECC2_H_P.csv

>>> COPY /tmp/2.37/GMJ_e2_H_P.csv /home/grierjones/DDCASPT2/iron_oxo_DDCASPT2/cluster/2.37/GMJ_e2_H_P.csv

>>> END FOREACH

>>> EXPORT j = M

>>> IF (-FILE GMJ_e2_${i}_${j}.csv)

>>> COPY /tmp/2.37/GMJ_RHS_H_M.csv /home/grierjones/DDCASPT2/iron_oxo_DDCASPT2/cluster/2.37/GMJ_RHS_H_M.csv

>>> COPY /tmp/2.37/GMJ_IVECW_H_M.csv /home/grierjones/DDCASPT2/iron_oxo_DDCASPT2/cluster/2.37/GMJ_IVECW_H_M.csv

>>> COPY /tmp/2.37/GMJ_IVECX_H_M.csv /home/grierjones/DDCASPT2/iron_oxo_DDCASPT2/cluster/2.37/GMJ_IVECX_H_M.csv

>>> COPY /tmp/2.37/GMJ_IVECC2_H_M.csv /home/grierjones/DDCASPT2/iron_oxo_DDCASPT2/cluster/2.37/GMJ_IVECC2_H_M.csv

>>> COPY /tmp/2.37/GMJ_e2_H_M.csv /home/grierjones/DDCASPT2/iron_oxo_DDCASPT2/cluster/2.37/GMJ_e2_H_M.csv

>>> END FOREACH

>>> END FOREACH

>>> EXPORT i = A

>>> IF (-FILE GMJ_e2_$i.csv)

>>> COPY /tmp/2.37/GMJ_RHS_A.csv /home/grierjones/DDCASPT2/iron_oxo_DDCASPT2/cluster/2.37/GMJ_RHS_A.csv

>>> COPY /tmp/2.37/GMJ_IVECW_A.csv /home/grierjones/DDCASPT2/iron_oxo_DDCASPT2/cluster/2.37/GMJ_IVECW_A.csv

>>> COPY /tmp/2.37/GMJ_IVECX_A.csv /home/grierjones/DDCASPT2/iron_oxo_DDCASPT2/cluster/2.37/GMJ_IVECX_A.csv

>>> COPY /tmp/2.37/GMJ_IVECC2_A.csv /home/grierjones/DDCASPT2/iron_oxo_DDCASPT2/cluster/2.37/GMJ_IVECC2_A.csv

>>> COPY /tmp/2.37/GMJ_e2_A.csv /home/grierjones/DDCASPT2/iron_oxo_DDCASPT2/cluster/2.37/GMJ_e2_A.csv

>>> END FOREACH

>>> EXPORT i = C

>>> IF (-FILE GMJ_e2_$i.csv)

>>> COPY /tmp/2.37/GMJ_RHS_C.csv /home/grierjones/DDCASPT2/iron_oxo_DDCASPT2/cluster/2.37/GMJ_RHS_C.csv

>>> COPY /tmp/2.37/GMJ_IVECW_C.csv /home/grierjones/DDCASPT2/iron_oxo_DDCASPT2/cluster/2.37/GMJ_IVECW_C.csv

>>> COPY /tmp/2.37/GMJ_IVECX_C.csv /home/grierjones/DDCASPT2/iron_oxo_DDCASPT2/cluster/2.37/GMJ_IVECX_C.csv

>>> COPY /tmp/2.37/GMJ_IVECC2_C.csv /home/grierjones/DDCASPT2/iron_oxo_DDCASPT2/cluster/2.37/GMJ_IVECC2_C.csv

>>> COPY /tmp/2.37/GMJ_e2_C.csv /home/grierjones/DDCASPT2/iron_oxo_DDCASPT2/cluster/2.37/GMJ_e2_C.csv

>>> END FOREACH

>>> EXPORT i = D

>>> IF (-FILE GMJ_e2_$i.csv)

>>> COPY /tmp/2.37/GMJ_RHS_D.csv /home/grierjones/DDCASPT2/iron_oxo_DDCASPT2/cluster/2.37/GMJ_RHS_D.csv

>>> COPY /tmp/2.37/GMJ_IVECW_D.csv /home/grierjones/DDCASPT2/iron_oxo_DDCASPT2/cluster/2.37/GMJ_IVECW_D.csv

>>> COPY /tmp/2.37/GMJ_IVECX_D.csv /home/grierjones/DDCASPT2/iron_oxo_DDCASPT2/cluster/2.37/GMJ_IVECX_D.csv

>>> COPY /tmp/2.37/GMJ_IVECC2_D.csv /home/grierjones/DDCASPT2/iron_oxo_DDCASPT2/cluster/2.37/GMJ_IVECC2_D.csv

>>> COPY /tmp/2.37/GMJ_e2_D.csv /home/grierjones/DDCASPT2/iron_oxo_DDCASPT2/cluster/2.37/GMJ_e2_D.csv

>>> END FOREACH

.########################.
.# Non-zero return code #.
.########################.

    Timing: Wall=433.12 User=429.73 System=3.26
************************************
*** WorkDir at /tmp/2.37 cleaned ***
************************************
