   This run of MOLCAS is using the pymolcas driver

                             OPE
                             OPE          NMOL  CASOP  ENMOLC A   SO
                 OPE        NMOLC        AS  OP EN  MO LC     AS  OP
                OPENM       OL CA        SO  PE NM  OL CA     SOP EN
                OP EN      MO   LC       AS  OP ENMOL  CASO   PENMOL
                OP  EN     MO   LC       AS  OP EN     MO     LC ASO
               OP   E  NMOL  C  AS       OP  EN MO     LC     AS  OP
               OP  E   NMO   LC AS        OPEN  MO     LCASOP EN   M
               O  PEN   MO  LCA  SO
            OPE   NMO   L   CAS    OP
        OPENMOL  CASOP     ENMOL   CASOPE
     OPENMOLCA   SOPENMOLCASOPEN   MOLCASOPE
    OPENMOLCAS   OP           EN   MOL    CAS
    OPENMOLCAS       OP  ENM        O     LCA
    OPENMOLCAS    OPEN  MOLCASO     P  E  NMO
    OPENMOLCAS     OP               E  N  MOL
    OPENMOLCA   SO           PENM   O  L  CAS    OPEN    MO    LCAS
    OPENMOLCA   SOP           ENM   O  L  CAS   OP  EN  MOLC  AS   O
    OPENMOLCA   SOPE           NM      O  LCA   S      OP  EN MO
    OPENMOLC                AS         O  PEN   M      OL  CA  SOPE
    OPENMO        LCASOPE  NMOL        C  ASO   P      ENMOLC     AS
    OPE     NMO      LCA  SO     P     E   NM   OL  CA SO  PE N   MO
          OPENMOLCA            SOPE   NMO        LCAS  O    P  ENMO
     OPENMOLCASOPENMOLCASOPENMOLCASOPENMOLCA
        OPENMOLCASOPENMOLCASOPENMOLCASOPE
            OPENMOLCASOPENMOLCASOPENM
               OPENMOLCASOPENMOLCA        version: 24.02
                   OPENMOLCASO
                       OPE                tag: 126-g611b04c8f

 OpenMolcas is free software; you can redistribute it and/or modify it
 under the terms of the GNU Lesser General Public License version 2.1.
 OpenMolcas is distributed in the hope that it will be useful, but it
 is provided "as is" and without any express or implied warranties.
 For more details see the full text of the license in the file
 LICENSE or in <http://www.gnu.org/licenses/>.

                 Copyright (C) The OpenMolcas Authors
           For the author list and the recommended citation,
                   consult the file CONTRIBUTORS.md

           *************************************************
           * pymolcas version py2.28                       *
           *   build c4a6d18ded8cb6cad61d2372a9abd97c      *
           *   (after the EMIL interpreter by V. Veryazov) *
           *************************************************

configuration info
------------------
Host name: debian (Linux)
C Compiler ID: GNU
C flags: -std=gnu99
Fortran Compiler ID: Intel
Fortran flags: -fpp -i8 -heap-arrays
Definitions: _MOLCAS_;_I8_;_LINUX_
Parallel: OFF (GA=OFF)


   ------------------------------------------------------------------
  |
  |              Project: 1.70
  |       Submitted from: /home/grierjones/DDCASPT2/delta_ML/BeC/1.70
  |         Scratch area: /tmp/1.70
  |      Save outputs to: /home/grierjones/DDCASPT2/delta_ML/BeC/1.70
  |               Molcas: /usr/local
  |
  | Scratch area is empty
  |
  |       MOLCAS_DRIVER = /usr/local/pymolcas
  | MOLCAS_KEEP_WORKDIR = NO
  |  MOLCAS_NEW_WORKDIR = YES
  |       MOLCAS_NPROCS = 1
  |       MOLCAS_SOURCE = /usr/local
  |    MOLCAS_STRUCTURE = 0
  |
   ------------------------------------------------------------------

++ ---------   Input file   ---------

&GATEWAY
coord=1.70.xyz
Basis = ANO-RCC-MB
Group = nosymm
End of Input

&SEWARD
End of Input

&SCF
UHF

&MBPT2
Frozen
0

&RASSCF
Title= RASSCF
FileOrb
/home/grierjones/DDCASPT2/delta_ML/BeC/1.60/1.60.RasOrb

NACTEL
2 0 0
Inactive
4
RAS2
2
Symmetry
1
Spin
1
orblisting
all
ITERation
200 100
CIMX
200
SDAV
500

&CASPT2
Imaginary Shift
0.0
Frozen
0

-- ----------------------------------

--- Start Module: gateway at Thu Apr 25 13:40:41 2024 ---
 
()()()()()()()()()()()()()()()()()()()()()()()()()()()()()()()()()()()()()()()()()()()()()()()()()()

                                              &GATEWAY

                                   only a single process is used
                       available to each process: 2.0 GB of memory, 1 thread?
                                             pid: 99475
()()()()()()()()()()()()()()()()()()()()()()()()()()()()()()()()()()()()()()()()()()()()()()()()()()
 
 
++    Symmetry information:
      ---------------------
 
                    Character Table for C1 
 
                             E  
                    a        1  x, y, xy, Rz, z, xz, Ry, yz, Rx, I
--
 
 
++    Basis set information:
      ----------------------
 
 
      Basis set label: BE.ANO-RCC...2S1P.
 
      Electronic valence basis set:
      ------------------
      Associated Effective Charge   4.000000 au
      Associated Actual Charge      4.000000 au
      Nuclear Model: Point charge
 
      Shell  nPrim  nBasis  Cartesian Spherical Contaminant
         s      14       2        X                  
         p       9       1        X                  
 
 
      Basis set label: C.ANO-RCC...2S1P.
 
      Electronic valence basis set:
      ------------------
      Associated Effective Charge   6.000000 au
      Associated Actual Charge      6.000000 au
      Nuclear Model: Point charge
 
      Shell  nPrim  nBasis  Cartesian Spherical Contaminant
         s      14       2        X                  
         p       9       1        X                  
--
 
 
++    Molecular structure info:
      -------------------------
 
                    ************************************************ 
                    **** Cartesian Coordinates / Bohr, Angstrom **** 
                    ************************************************ 
 
     Center  Label                x              y              z                     x              y              z
        1      BE1              0.000000       0.000000       0.000000              0.000000       0.000000       0.000000
        2      C2               0.000000       0.000000       3.212534              0.000000       0.000000       1.700000
--
 
 
            Nuclear Potential Energy              7.47073710 au
 
--- Stop Module: gateway at Thu Apr 25 13:40:41 2024 /rc=_RC_ALL_IS_WELL_ ---
*** files: xmldump
    saved to directory /home/grierjones/DDCASPT2/delta_ML/BeC/1.70

--- Start Module: seward at Thu Apr 25 13:40:41 2024 ---
 
()()()()()()()()()()()()()()()()()()()()()()()()()()()()()()()()()()()()()()()()()()()()()()()()()()

                                              &SEWARD

                                   only a single process is used
                       available to each process: 2.0 GB of memory, 1 thread?
                                             pid: 99479
()()()()()()()()()()()()()()()()()()()()()()()()()()()()()()()()()()()()()()()()()()()()()()()()()()
 
               SEWARD will generate:
                  Multipole Moment integrals up to order  2
                  Kinetic Energy integrals
                  Nuclear Attraction integrals (point charge)
                  One-Electron Hamiltonian integrals
                  Velocity integrals
                  Relativistic Douglas-Kroll-Hess integrals:
                    - Parametrization         : EXP
                    - DKH order of Hamiltonian: 2
                    - DKH order of Properties : 0
                         - multipole moment operators
                         - electric potential operators
                         - contact operators
                  Orbital angular momentum around ( 0.0000  0.0000  1.8347 )
                  Velocity quadrupole around ( 0.0000  0.0000  1.8347 )
                  Atomic mean-field integrals
                  Two-Electron Repulsion integrals
 
                   Integrals are discarded if absolute value <: 1.00E-14
                   Integral cutoff threshold is set to       <: 1.00E-16
 
            Nuclear Potential Energy              7.47073710 au
 
 
      Basis set specifications :
      Symmetry species         a  
      Basis functions           10
 
 
      Input file to MOLDEN was generated!
 
--- Stop Module: seward at Thu Apr 25 13:40:41 2024 /rc=_RC_ALL_IS_WELL_ ---
*** files: 1.70.GssOrb 1.70.guessorb.h5 1.70.guessorb.molden xmldump
    saved to directory /home/grierjones/DDCASPT2/delta_ML/BeC/1.70

*** symbolic link created: INPORB -> 1.70.GssOrb
--- Start Module: scf at Thu Apr 25 13:40:41 2024 ---
 
()()()()()()()()()()()()()()()()()()()()()()()()()()()()()()()()()()()()()()()()()()()()()()()()()()

                                                &SCF

                                   only a single process is used
                       available to each process: 2.0 GB of memory, 1 thread?
                                             pid: 99482
()()()()()()()()()()()()()()()()()()()()()()()()()()()()()()()()()()()()()()()()()()()()()()()()()()
 
++    Input section:
      --------------
 
      Header of the integral files:
      
       Integrals generated by Gateway/Seward, Thu Apr 25 13:40:41 2024
 
 
      Cartesian coordinates in Angstrom:
      -----------------------------------------------------
      No.  Label        X            Y            Z        
      -----------------------------------------------------
       1   BE1        0.00000000   0.00000000   0.00000000
       2   C2         0.00000000   0.00000000   1.70000000
      -----------------------------------------------------
      Nuclear repulsion energy =    7.47073710
--
 
++    Orbital specifications:
      -----------------------
 
      Symmetry species               1
                                     a
      Frozen orbitals                0
      Occupied orbitals alpha        5
      Occupied orbitals beta         5
      Secondary orbitals alpha       5
      Secondary orbitals beta        5
      Deleted orbitals               0
      Total number of orbitals      10
      Number of basis functions     10
--
 
      Molecular charge                           0.000
 
++    Optimization specifications:
      ----------------------------
 
      SCF Algorithm: Conventional USCF
      D(i)-D(i-1) density differences are used
      Number of density matrices in core                 5
      Maximum number of NDDO SCF iterations            400
      Maximum number of HF SCF iterations              400
      Threshold for SCF energy change             1.00E-09
      Threshold for density matrix                1.00E-04
      Threshold for Fock matrix                   1.50E-04
      Threshold for linear dependence             1.00E-09
      Threshold at which DIIS is turned on        1.50E-01
      Maximum depth in the DIIS procedure                5
      Maximum depth in the BFGS Hessian update          30
      Threshold at which QNR/C2DIIS is turned on  7.50E-02
      Threshold for Norm(delta) (QNR/C2DIIS)      1.00E-03
      All orbitals punched on: UHFORB
--
 
      Input vectors read from INPORB
      Orbital file label: *Guess orbitals
 
 
++ Convergence information
                               UHF SCF        iterations: Energy and convergence statistics
 
Iter     Tot. SCF        One-elec.       Two-elec.     Energy      Max Dij or  Max Fij      DNorm      TNorm      AccCon     Time
         Energy          Energy          Energy        Change      Delta Norm                                                in Sec.
   1   -51.804906422   -86.595222557    27.319579040   0.00E+00    9.97E-01*   1.76E-01*    4.58E+00   1.57E+01   None         0.
   2   -51.441592770   -81.261409145    22.349079280   3.63E-01*   2.79E-01*   1.17E-01*    3.89E+00   1.40E+01   EDIIS        0.
   3   -52.174285178   -84.534052237    24.889029964  -7.33E-01*   6.93E-02*   2.89E-02*    1.54E+00   1.50E+01   EDIIS        0.
   4   -52.178505874   -84.688810700    25.039567732  -4.22E-03*   6.37E-02*   1.56E-02*    3.55E-01   1.50E+01   c2DIIS       0.
   5   -52.178833435   -84.518553258    24.868982729  -3.28E-04*   1.19E-01*   1.15E-02*    1.58E-01   1.50E+01   QNRc2DIIS    0.
   6   -52.179041050   -84.718683359    25.068905214  -2.08E-04*   5.09E-02*   1.15E-02*    1.59E-01   1.50E+01   QNRc2DIIS    0.
   7   -52.179613457   -84.628619164    24.978268611  -5.72E-04*   5.16E-03*   1.84E-03*    6.70E-02   1.50E+01   QNRc2DIIS    0.
   8   -52.179626807   -84.624464550    24.974100648  -1.33E-05*   9.96E-02*   1.27E-03*    6.89E-03   1.50E+01   QNRc2DIIS    0.
   9   -52.179753397   -84.637903035    24.987412543  -1.27E-04*   3.53E-03*   3.11E-04*    1.30E-01   1.50E+01   QNRc2DIIS    0.
  10   -52.179754593   -84.636656616    24.986164928  -1.20E-06*   9.66E-04    9.42E-05     5.95E-03   1.50E+01   QNRc2DIIS    0.
  11   -52.179754705   -84.635918913    24.985427113  -1.12E-07*   4.40E-04    1.28E-05     1.84E-03   1.50E+01   QNRc2DIIS    0.
  12   -52.179754709   -84.635931173    24.985439369  -3.67E-09*   2.21E-05    5.46E-07     5.95E-04   1.50E+01   QNRc2DIIS    0.
 DIIS_X: Reduction of the subspace dimension due to numerical imbalance of the v
 alues in the B-Matrix
 kOptim=                     5 -> kOptim=                     4
  13   -52.179754709   -84.635936646    24.985444842  -6.54E-12    3.01E-07    3.57E-08     2.91E-05   1.50E+01   QNRc2DIIS    0.
 
       Convergence after  13 Macro Iterations
--
 
 *****************************************************************************************************************************
 *                                                                                                                           *
 *                                             SCF/KS-DFT Program, Final results                                             *
 *                                                                                                                           *
 *                                                                                                                           *
 *                                                                                                                           *
 *                                                       Final Results                                                       *
 *                                                                                                                           *
 *****************************************************************************************************************************
 
::    Total SCF energy                                -52.1797547087
      One-electron energy                             -84.6359366458
      Two-electron energy                              24.9854448421
      Nuclear repulsion energy                          7.4707370951
      Kinetic energy (interpolated)                    52.6630829457
      Virial theorem                                    0.9908222571
      Total spin, S(S+1)                               -0.0000000000
      Total spin, S                                    -0.0000000000
      Max non-diagonal density matrix element           0.0000001569
      Max non-diagonal Fock matrix element              0.0000000170
 
 
      All orbitals with orbital energies smaller than  E(LUMO)+0.5 are printed
 
++    Molecular orbitals:
      -------------------
 
      Title: UHF orbitals (alpha)

      Molecular orbitals for symmetry species 1: a  
 
          Orbital            1         2         3         4         5         6         7         8         9        10    
          Energy          -11.2428   -4.7537   -0.7327   -0.3147   -0.2886   -0.0002    0.0260    0.1608    0.2354    0.4700
          Occ. No.          1.0000    1.0000    1.0000    1.0000    1.0000    0.0000    0.0000    0.0000    0.0000    0.0000
 
        1 BE1    1s        -0.0005    0.9998   -0.0502    0.0303    0.0000    0.0398    0.0000    0.0000   -0.0000    0.1245
        2 BE1    2s        -0.0019    0.0026    0.1906   -0.6669   -0.0000    0.5909    0.0000    0.0000   -0.0000    0.9105
        3 BE1    2px       -0.0000    0.0000    0.0000    0.0000   -0.2408   -0.0000    0.6355    0.5031   -0.6144   -0.0000
        4 BE1    2py        0.0000   -0.0000   -0.0000   -0.0000    0.3816   -0.0000    0.4009   -0.7973   -0.3877    0.0000
        5 BE1    2pz       -0.0015   -0.0009    0.1218   -0.0128   -0.0000   -0.6453   -0.0000    0.0000   -0.0000    1.1646
        6 C2     1s         1.0002   -0.0001   -0.0173    0.0346    0.0000    0.0259    0.0000   -0.0000    0.0000   -0.1399
        7 C2     2s        -0.0007    0.0016    0.8277    0.5159    0.0000    0.1488    0.0000   -0.0000    0.0000   -1.0433
        8 C2     2px        0.0000    0.0000    0.0000    0.0000   -0.4113   -0.0000    0.4030   -0.3767    0.7867    0.0000
        9 C2     2py       -0.0000    0.0000    0.0000   -0.0000    0.6518   -0.0000    0.2543    0.5971    0.4964    0.0000
       10 C2     2pz       -0.0023   -0.0011   -0.1155    0.5743    0.0000    0.5372    0.0000    0.0000   -0.0000    0.8668
--
 
 
      Input file to MOLDEN was generated!
 
 
++    Static properties:
      ------------------
 
 
      LoProp Charges per center
 

                   BE1      C2    
      Nuclear      4.0000   6.0000
      Electronic  -3.4241  -6.5759
 
      Total        0.5759  -0.5759
--
 
 
      All orbitals with orbital energies smaller than  E(LUMO)+0.5 are printed
 
++    Molecular orbitals:
      -------------------
 
      Title: UHF orbitals (beta)

      Molecular orbitals for symmetry species 1: a  
 
          Orbital            1         2         3         4         5         6         7         8         9        10    
          Energy          -11.2428   -4.7537   -0.7327   -0.3147   -0.2886   -0.0002    0.0260    0.1608    0.2354    0.4700
          Occ. No.          1.0000    1.0000    1.0000    1.0000    1.0000    0.0000    0.0000    0.0000    0.0000    0.0000
 
        1 BE1    1s        -0.0005    0.9998   -0.0502    0.0303    0.0000    0.0398    0.0000    0.0000   -0.0000    0.1245
        2 BE1    2s        -0.0019    0.0026    0.1906   -0.6669   -0.0000    0.5909    0.0000    0.0000   -0.0000    0.9105
        3 BE1    2px       -0.0000    0.0000    0.0000    0.0000   -0.2408   -0.0000    0.6355    0.5031   -0.6144   -0.0000
        4 BE1    2py        0.0000   -0.0000   -0.0000   -0.0000    0.3816   -0.0000    0.4009   -0.7973   -0.3877    0.0000
        5 BE1    2pz       -0.0015   -0.0009    0.1218   -0.0128   -0.0000   -0.6453   -0.0000    0.0000   -0.0000    1.1646
        6 C2     1s         1.0002   -0.0001   -0.0173    0.0346    0.0000    0.0259    0.0000   -0.0000    0.0000   -0.1399
        7 C2     2s        -0.0007    0.0016    0.8277    0.5159    0.0000    0.1488    0.0000   -0.0000    0.0000   -1.0433
        8 C2     2px        0.0000    0.0000    0.0000    0.0000   -0.4113   -0.0000    0.4030   -0.3767    0.7867    0.0000
        9 C2     2py       -0.0000    0.0000    0.0000   -0.0000    0.6518   -0.0000    0.2543    0.5971    0.4964    0.0000
       10 C2     2pz       -0.0023   -0.0011   -0.1155    0.5743    0.0000    0.5372    0.0000    0.0000   -0.0000    0.8668
--
 
 
++    Molecular charges:
      ------------------
 
      Mulliken charges per centre and basis function type
      ---------------------------------------------------
 
                            BE1                     C2    
                     alpha        beta       alpha        beta
      1s           1.0000      1.0000      1.0002      1.0002
      2s           0.5333      0.5333      0.9226      0.9226
      2px          0.0868      0.0868      0.1980      0.1980
      2pz          0.0681      0.0681      0.4757      0.4757
      2py          0.2180      0.2180      0.4973      0.4973
      Total        1.9062      1.9062      3.0938      3.0938
      Total              3.8125                  6.1875
 
      Charge            0.1875                 -0.1875
 
      Total electronic charge=   10.000000
 
      Total            charge=   -0.000000
--
 
 
      Input file to MOLDEN was generated!
 
 
++    Static properties:
      ------------------
 
 
      LoProp Charges per center
 

                   BE1      C2    
      Nuclear      4.0000   6.0000
      Electronic  -3.4241  -6.5759
 
      Total        0.5759  -0.5759
--
 
 
++    Natural Bond Order analysis
      ---------------------------
      Based on LoProp computed density
      -------------------------------------------------------------------------------------
      Atom A       Atom B       Bond Order
        BE1          C2             0.834
      -------------------------------------------------------------------------------------
      NBO located      1.668 electrons involved in    1 bonds.
      NBO located      0.997 non-bonded electrons on atom BE1       
      The remaining    2.742 electrons are to be considered as diffuse
--
 
 
++    Molecular orbitals:
      -------------------
 
      Title: Natural orbitals

      Molecular orbitals for symmetry species 1: a  
 
          Orbital            1         2         3         4         5         6         7         8         9        10    
          Energy          -11.2428   -4.7537   -0.7327   -0.3147   -0.2886   -0.0002    0.0260    0.1608    0.2354    0.4700
          Occ. No.          2.0000    2.0000    2.0000    2.0000    2.0000    0.0000    0.0000    0.0000    0.0000    0.0000
 
        1 BE1    1s        -0.0005    0.9998   -0.0502    0.0303   -0.0000    0.0398    0.0000   -0.0000   -0.0000    0.1245
        2 BE1    2s        -0.0019    0.0026    0.1906   -0.6670    0.0000    0.5908    0.0000   -0.0000   -0.0000    0.9104
        3 BE1    2px       -0.0000    0.0000    0.0000   -0.0000   -0.2407   -0.0000    0.6355    0.5031   -0.6144    0.0000
        4 BE1    2py        0.0000   -0.0000   -0.0000    0.0000    0.3815   -0.0000    0.4009   -0.7974   -0.3877   -0.0000
        5 BE1    2pz       -0.0015   -0.0009    0.1218   -0.0128    0.0000   -0.6453   -0.0000   -0.0000   -0.0000    1.1646
        6 C2     1s         1.0002   -0.0001   -0.0173    0.0346   -0.0000    0.0259    0.0000    0.0000    0.0000   -0.1399
        7 C2     2s        -0.0007    0.0016    0.8277    0.5159   -0.0000    0.1488    0.0000    0.0000    0.0000   -1.0433
        8 C2     2px        0.0000    0.0000    0.0000   -0.0000   -0.4113   -0.0000    0.4030   -0.3767    0.7867   -0.0000
        9 C2     2py       -0.0000   -0.0000   -0.0000    0.0000    0.6519   -0.0000    0.2543    0.5970    0.4964    0.0000
       10 C2     2pz       -0.0023   -0.0011   -0.1155    0.5742   -0.0000    0.5372    0.0000   -0.0000   -0.0000    0.8669
--
 
 
++    Molecular properties:
      ---------------------
 
      Charge (e):
                      =   -0.0000
      Dipole Moment (Debye):
      Origin of the operator (Ang)=    0.0000    0.0000    0.0000
                   X=  1.5844E-14               Y= -2.8215E-14               Z= -3.0603E+00           Total=  3.0603E+00
      Quadrupole Moment (Debye*Ang):
      Origin of the operator (Ang)=    0.0000    0.0000    0.9709
                  XX= -1.1989E+01              XY=  2.5458E+00              XZ= -3.3056E-14              YY= -1.4418E+01
                  YZ= -3.0345E-14              ZZ= -9.5917E+00
      In traceless form (Debye*Ang)
                  XX=  1.5552E-02              XY=  3.8187E+00              XZ= -4.9584E-14              YY= -3.6274E+00
                  YZ= -4.5517E-14              ZZ=  3.6119E+00
--
 
 
      Input file to MOLDEN was generated!
 
 ###############################################################################
 ###############################################################################
 ###                                                                         ###
 ###                                                                         ###
 ###    WARNING: RunFile label nBas                                          ###
 ###    was used       87 times                                              ###
 ###                                                                         ###
 ###                                                                         ###
 ###############################################################################
 ###############################################################################
--- Stop Module: scf at Thu Apr 25 13:40:42 2024 /rc=_RC_ALL_IS_WELL_ ---
*** files: 1.70.LprOrb 1.70.LoProp.molden 1.70.scf.molden 1.70.scf.h5 1.70.UhfOrb 1.70.UnaOrb xmldump
    saved to directory /home/grierjones/DDCASPT2/delta_ML/BeC/1.70

*** symbolic link created: INPORB -> 1.70.UnaOrb
--- Start Module: mbpt2 at Thu Apr 25 13:40:42 2024 ---
 
()()()()()()()()()()()()()()()()()()()()()()()()()()()()()()()()()()()()()()()()()()()()()()()()()()

                                               &MBPT2

                                   only a single process is used
                       available to each process: 2.0 GB of memory, 1 thread?
                                             pid: 99485
()()()()()()()()()()()()()()()()()()()()()()()()()()()()()()()()()()()()()()()()()()()()()()()()()()
 
 
 ###############################################################################
 ###############################################################################
 ###                                                                         ###
 ###                                                                         ###
 ###    WARNING: MP2 implementation intended for RHF references only         ###
 ###                                                                         ###
 ###                                                                         ###
 ###############################################################################
 ###############################################################################
MBPT2 WARNING: Reference function according to RunFile:UHF-SCF 
I'll assume you know what you're doing and continue
 
 
WARNING!
Default frozen orbitals as non valence orbitals is overwritten by user input.
Default values:   2
 
 
      Cartesian coordinates in Angstrom:
      -----------------------------------------------------
      No.  Label        X            Y            Z        
      -----------------------------------------------------
       1   BE1        0.00000000   0.00000000   0.00000000
       2   C2         0.00000000   0.00000000   1.70000000
      -----------------------------------------------------
      Nuclear repulsion energy =    7.47073710
 
      Contents of RUNFILE file:
      -------------------------
 
      Symmetry species                           1
                                                 a
      Number of basis functions                 10
      Frozen occupied orbitals                   0
      Active occupied orbitals                   5
      Active external orbitals                   5
      Deleted external orbitals                  0
 
 
      Energies of the active occupied orbitals
 
      symmetry species 1                   -11.242774     -4.753708     -0.732724     -0.314718     -0.288600
 
 
      Energies of the active external orbitals
 
      symmetry species 1                    -0.000217      0.026006      0.160839      0.235356      0.469961
 
 
      ********************************************************************************************************
      *                                               Results                                                *
      ********************************************************************************************************
 
 Conventional algorithm used...

       SCF energy                           =      -52.1797547087 a.u.
       Second-order correlation energy      =       -0.0994069678 a.u.

       Total energy                         =      -52.2791616765 a.u.
       Reference weight ( Cref**2 )         =        0.89979
 
::    Total MBPT2 energy                              -52.2791616765
 
 
       Zeroth-order energy (E0)             =      -27.1943098666 a.u.
 
       Shanks-type energy S1(E)             =      -52.2795587564 a.u.
 
 


       Data processing and timing information:

       Section                                              time(sec)
                                                          CPU  Elapsed

      Input data processing                              0.03      0.04
      Transformation of integrals                        0.00      0.00
      MBPT2 calculations (BJAI)                          0.00      0.00
      Total MBPT2 calculations                           0.03      0.04
 
 
--- Stop Module: mbpt2 at Thu Apr 25 13:40:42 2024 /rc=_RC_ALL_IS_WELL_ ---
*** files: xmldump
    saved to directory /home/grierjones/DDCASPT2/delta_ML/BeC/1.70

*** symbolic link created: INPORB -> 1.70.UnaOrb
--- Start Module: rasscf at Thu Apr 25 13:40:42 2024 ---
 
()()()()()()()()()()()()()()()()()()()()()()()()()()()()()()()()()()()()()()()()()()()()()()()()()()

                                              &RASSCF

                                   only a single process is used
                       available to each process: 2.0 GB of memory, 1 thread?
                                             pid: 99488
()()()()()()()()()()()()()()()()()()()()()()()()()()()()()()()()()()()()()()()()()()()()()()()()()()
 
 
      Header of the ONEINT file:
      --------------------------
      
      Integrals generated by Gateway/Seward, Thu Apr 25 13:40:41 2024
 
 
      OrdInt status: non-squared
 
 
      Cartesian coordinates in Angstrom:
      -----------------------------------------------------
      No.  Label        X            Y            Z        
      -----------------------------------------------------
       1   BE1        0.00000000   0.00000000   0.00000000
       2   C2         0.00000000   0.00000000   1.70000000
      -----------------------------------------------------
      Nuclear repulsion energy =    7.47073710
 
++    Wave function specifications:
      -----------------------------
 
      Number of closed shell electrons           8
      Number of electrons in active shells       2
      Max number of holes in RAS1 space          0
      Max nr of electrons in RAS3 space          0
      Number of inactive orbitals                4
      Number of active orbitals                  2
      Number of secondary orbitals               4
      Spin quantum number                      0.0
      State symmetry                             1
--
 
++    Orbital specifications:
      -----------------------
 
      Symmetry species                           1
                                                 a
      Frozen orbitals                            0
      Inactive orbitals                          4
      Active orbitals                            2
      RAS1 orbitals                              0
      RAS2 orbitals                              2
      RAS3 orbitals                              0
      Secondary orbitals                         4
      Deleted orbitals                           0
      Number of basis functions                 10
--
 
++    CI expansion specifications:
      ----------------------------
 
      Number of CSFs                             3
      Number of determinants                     3
      Number of root(s) required                 1
      Root chosen for geometry opt.              1
      CI root used                               1
         
      highest root included in the CI            1
      max. size of the explicit Hamiltonian      3
--
 
++    Optimization specifications:
      ----------------------------
 
      RASSCF algorithm: Conventional
      Maximum number of macro iterations       200
      Maximum number of SX iterations          100
      Threshold for RASSCF energy            1.000E-08
      Threshold for max MO rotation          1.000E-01
      Threshold for max BLB element          1.000E-04
      Level shift parameter                  5.000E-01
      Make Quasi-Newton update
--
 
      The MO-coefficients are taken from the file:
      /home/grierjones/DDCASPT2/delta_ML/BeC/1.60/1.60.RasOrb                                                                                                                                                                                                         
      Title: RASSCF average (pseudo-natural) orbitals                                      
 
      Total molecular charge    0.00
 
      ************************************************************************************************************************
      *                                                                                                                      *
      *                                            Wave function control section                                             *
      *                                                                                                                      *
      ************************************************************************************************************************
 
 
                                         RASSCF iterations: Energy and convergence statistics
                                         ----------------------------------------------------
 
      Iter CI   SX   CI       RASSCF       Energy    max ROT     max BLB   max BLB  Level Ln srch  Step   QN   Walltime
          iter iter root      energy       change     param      element    value   shift minimum  type update hh:mm:ss
 Nr of preliminary CI iterations:   1
        1   1    6    1   -52.19663690    0.00E+00  -1.34E-02    3  10 1 -2.73E-02*  0.23   0.00    SX    NO    0:00:00
        2   1    6    1   -52.19744294   -8.06E-04*  7.29E-03    4   9 1 -9.78E-03*  0.23   0.00    SX    NO    0:00:00
        3   1    6    1   -52.19771855   -2.76E-04* -5.28E-03    3   7 1 -6.82E-03*  0.23   0.00    SX    NO    0:00:00
        4   1    6    1   -52.19787327   -1.55E-04*  4.53E-03    4   9 1 -6.06E-03*  0.23   0.00    SX    NO    0:00:00
        5   1    6    1   -52.19798635   -1.13E-04* -3.56E-02    4   9 1 -5.33E-03*  0.22   2.50    QN   YES    0:00:00
        6   1    6    1   -52.19848106   -4.95E-04*  9.76E-03    3  10 1  4.87E-03*  0.22   1.18    QN   YES    0:00:00
        7   1    6    1   -52.19854104   -6.00E-05*  7.28E-03    3  10 1  3.71E-03*  0.21   1.76    LS   YES    0:00:00
        8   1    6    1   -52.19855494   -1.39E-05*  2.17E-03    3  10 1  2.89E-03*  0.21   1.02    QN   YES    0:00:00
        9   1    6    1   -52.19857262   -1.77E-05*  1.21E-03    3  10 1  1.16E-03*  0.21   1.56    LS   YES    0:00:00
       10   1    6    1   -52.19857526   -2.64E-06*  1.55E-03    6   7 1 -2.43E-04*  0.21   1.01    QN   YES    0:00:00
       11   1    5    1   -52.19857566   -4.06E-07* -3.16E-03    3   6 1  8.89E-05   0.21   2.02    QN   YES    0:00:00
       12   1    5    1   -52.19857601   -3.44E-07*  6.21E-04    3  10 1 -9.69E-05   0.21   1.16    QN   YES    0:00:00
       13   1    5    1   -52.19857603   -2.04E-08*  1.21E-04    3  10 1 -3.46E-05   0.21   1.27    QN   YES    0:00:00
       14   1    4    1   -52.19857603   -2.66E-09  -1.42E-05    3   7 1  1.09E-05   0.21   1.25    QN   YES    0:00:00
      Convergence after 14 iterations
       15   1    4    1   -52.19857603   -2.38E-10  -1.42E-05    3   7 1  1.54E-06   0.21   1.25    QN   YES    0:00:00
 
      ************************************************************************************************************************
                                                      Wave function printout:
                       occupation of active orbitals, and spin coupling of open shells (u,d: Spin up or down)
      ************************************************************************************************************************
 
      Note: transformation to natural orbitals
      has been made, which may change the order of the CSFs.
 
      printout of CI-coefficients larger than  0.05 for root  1
      energy=     -52.198576
      conf/sym  11     Coeff  Weight
             1  20  -0.16612 0.02760
             3  02   0.98611 0.97240
 
      Natural orbitals and occupation numbers for root  1
      sym 1:   0.055193   1.944807
 
      ************************************************************************************************************************
      *                                                                                                                      *
      *                                                    Final results                                                     *
      *                                                                                                                      *
      ************************************************************************************************************************
 
 
++    Wave function specifications:
      -----------------------------
 
      Number of closed shell electrons           8
      Number of electrons in active shells       2
      Max number of holes in RAS1 space          0
      Max nr of electrons in RAS3 space          0
      Number of inactive orbitals                4
      Number of active orbitals                  2
      Number of secondary orbitals               4
      Spin quantum number                      0.0
      State symmetry                             1
--
 
++    Orbital specifications:
      -----------------------
 
      Symmetry species                           1
                                                 a
      Frozen orbitals                            0
      Inactive orbitals                          4
      Active orbitals                            2
      RAS1 orbitals                              0
      RAS2 orbitals                              2
      RAS3 orbitals                              0
      Secondary orbitals                         4
      Deleted orbitals                           0
      Number of basis functions                 10
--
 
++    CI expansion specifications:
      ----------------------------
 
      Number of CSFs                             3
      Number of determinants                     3
      Number of root(s) required                 1
      CI root used                               1
      highest root included in the CI            1
      Root passed to geometry opt.               1
--
 
++    Final optimization conditions:
      ------------------------------
 
      Average CI energy                             -52.19857603
      RASSCF energy for state  1                    -52.19857603
      Super-CI energy                                -0.00000000
      RASSCF energy change                           -0.00000000
      Max change in MO coefficients               1.531E-05
      Max non-diagonal density matrix element    -1.418E-05
      Maximum BLB matrix element                  1.544E-06
      (orbital pair   3,   7 in symmetry   1)
      Norm of electronic gradient            2.238E-06
--
 
 
      Final state energy(ies):
      ------------------------
 
::    RASSCF root number  1 Total energy:    -52.19857603
 
++    Molecular orbitals:
      -------------------
 
      Pseudonatural active orbitals and approximate occupation numbers
 
 
 
 
      Molecular orbitals for symmetry species 1: a  
 
 
      Orbital                 1         2         3         4         5         6         7         8         9        10
      Energy           -11.2399   -4.7521   -0.4531   -0.2867    0.1374    0.0034    0.0014    0.1139    0.1620    0.4717
      Occ. No.           2.0000    2.0000    2.0000    2.0000    0.0552    1.9448    0.0000    0.0000    0.0000    0.0000
 
     1 BE1    1s        -0.0002   -0.9998   -0.0534    0.0000   -0.0000   -0.0232    0.0397    0.0000   -0.0000    0.1245
     2 BE1    2s         0.0006   -0.0027    0.6560   -0.0000   -0.0000   -0.2347    0.5913   -0.0000   -0.0000    0.9078
     3 BE1    2px        0.0000   -0.0000    0.0000    0.4539   -0.0028   -0.0000   -0.0000   -0.0403   -0.9406   -0.0000
     4 BE1    2py        0.0000   -0.0000   -0.0000   -0.0176   -0.0718    0.0000    0.0000   -1.0419    0.0364   -0.0000
     5 BE1    2pz       -0.0025    0.0010    0.0843    0.0000   -0.0000    0.0811   -0.6468   -0.0000    0.0000    1.1643
     6 C2     1s         1.0001    0.0001   -0.0384    0.0000    0.0000    0.0181    0.0260    0.0000   -0.0000   -0.1398
     7 C2     2s        -0.0115   -0.0009    0.0568    0.0000    0.0000    0.9810    0.1453    0.0000   -0.0000   -1.0368
     8 C2     2px       -0.0000    0.0000    0.0000    0.7679    0.0394   -0.0000    0.0000    0.0091    0.7079    0.0000
     9 C2     2py       -0.0000   -0.0000   -0.0000   -0.0297    1.0178    0.0000    0.0000    0.2344   -0.0274    0.0000
    10 C2     2pz       -0.0048    0.0013   -0.5328    0.0000   -0.0000    0.2355    0.5351    0.0000   -0.0000    0.8703
--
 
      Von Neumann Entropy (Root   1) =  0.18219
 

      Mulliken population analysis for root number:  1
      -----------------------------------------------
 
 
++    Molecular charges:
      ------------------
 
      Mulliken charges per centre and basis function type
      ---------------------------------------------------
 
                BE1     C2    
      1s       2.0000  2.0004
      2s       1.0711  1.8085
      2px      0.6148  1.3823
      2pz      0.1230  0.9419
      2py      0.0000  0.0581
      Total    3.8089  6.1911
 
      N-E      0.1911 -0.1911
 
      Total electronic charge=   10.000000
 
      Total            charge=   -0.000000
--
 
 

      Expectation values of various properties for root number:  1
      -----------------------------------------------------------
 
 
++    Molecular properties:
      ---------------------
 
      Charge (e):
                      =   -0.0000
      Dipole Moment (Debye):
      Origin of the operator (Ang)=    0.0000    0.0000    0.0000
                   X= -2.5628E-13               Y=  1.1636E-12               Z= -3.0308E+00           Total=  3.0308E+00
      Quadrupole Moment (Debye*Ang):
      Origin of the operator (Ang)=    0.0000    0.0000    0.9709
                  XX= -1.6017E+01              XY=  2.1515E-01              XZ=  6.6301E-15              YY= -1.0468E+01
                  YZ= -2.1944E-12              ZZ= -9.3430E+00
      In traceless form (Debye*Ang)
                  XX= -6.1112E+00              XY=  3.2272E-01              XZ=  9.9452E-15              YY=  2.2122E+00
                  YZ= -3.2916E-12              ZZ=  3.8990E+00
--
 

      LoProp population analysis for root number:  1
      -----------------------------------------------
 
 
++    LoProp analysis:
      ----------------
 
 
 
      Input file to MOLDEN was generated!
 
 
++    Static properties:
      ------------------
 
 
      LoProp Charges per center
 

                   BE1      C2    
      Nuclear      4.0000   6.0000
      Electronic  -3.4289  -6.5711
 
      Total        0.5711  -0.5711
--
 
 
      Natural Bond Order analysis for root number:  1
 
++    Natural Bond Order analysis
      ---------------------------
      Based on LoProp computed density
      -------------------------------------------------------------------------------------
      Atom A       Atom B       Bond Order
        BE1          C2             0.761
      -------------------------------------------------------------------------------------
      NBO located      1.522 electrons involved in    1 bonds.
      NBO located      0.990 non-bonded electrons on atom BE1       
      The remaining    2.883 electrons are to be considered as diffuse
--
 
--
 
 
      Input file to MOLDEN was generated!
 
      Average orbitals are written to the RASORB file
      Natural orbitals for root   1 are written to the RASORB.1 file
      Spin density orbitals for root   1 are written to the SPDORB.1 file
 
--- Stop Module: rasscf at Thu Apr 25 13:40:43 2024 /rc=_RC_ALL_IS_WELL_ ---
*** files: 1.70.LprOrb 1.70.rasscf.molden 1.70.LoProp.molden 1.70.RasOrb.1 1.70.RasOrb 1.70.rasscf.h5 1.70.SpdOrb.1 xmldump
    saved to directory /home/grierjones/DDCASPT2/delta_ML/BeC/1.70

*** symbolic link created: INPORB -> 1.70.RasOrb
--- Start Module: caspt2 at Thu Apr 25 13:40:43 2024 ---
 
()()()()()()()()()()()()()()()()()()()()()()()()()()()()()()()()()()()()()()()()()()()()()()()()()()

                                              &CASPT2

                                   only a single process is used
                       available to each process: 2.0 GB of memory, 1 thread?
                                             pid: 99493
()()()()()()()()()()()()()()()()()()()()()()()()()()()()()()()()()()()()()()()()()()()()()()()()()()
 
 ###############################################################################
 ###############################################################################
 ###                                                                         ###
 ###                                                                         ###
 ###    WARNING: User changed nr of frozen orbitals.                         ###
 ###                                                                         ###
 ###                                                                         ###
 ###############################################################################
 ###############################################################################
 
++    Wave function specifications:
      -----------------------------
 
      Number of closed shell electrons           8
      Number of electrons in active shells       2
      Max number of holes in RAS1 space          0
      Max number of electrons in RAS3 space      0
      Number of inactive orbitals                4
      Number of active orbitals                  2
      Number of secondary orbitals               4
      Spin quantum number                      0.0
      State symmetry                             1
      Number of CSFs                             3
      Number of CASSCF root(s) available         1
      CASPT2 state passed to geometry opt.       1
      A file JOBMIX will be created
      This is a CASSCF or RASSCF reference function
--
 
++    Orbital specifications:
      -----------------------
 
      Symmetry species                           1
                                                 a
      Frozen orbitals                            0
      Inactive orbitals                          4
      Active orbitals                            2
      Secondary orbitals                         4
      Deleted orbitals                           0
      Number of basis functions                 10
--
 
++    CASPT2 specifications:
      ----------------------
 
      Type of calculation                        SS-CASPT2
      Fock operator                              state-specific
      IPEA shift                                 0.25
      Real shift                                 0.00
      Imaginary shift                            0.00
      The input orbitals will be transformed to quasi-canonical
--
 
--------------------------------------------------------------------------------
 Estimated memory requirements:
  POLY3 :                   250070
  RHS:                      250492
  SIGMA :                   250512
  PRPCTL:                        0
 Available workspace:    230392690
 
++ CASPT2 computation for group   1
 
********************************************************************************
 Multi-State initialization phase begins for group   1
--------------------------------------------------------------------------------
********************************************************************************
 Compute H0 matrices for state    1
--------------------------------------------------------------------------------
--------------------------------------------------------------------------------
 H0 matrices have been computed.
 
********************************************************************************
  CASPT2 EQUATION SOLUTION
--------------------------------------------------------------------------------
 
  Total nr of CASPT2 parameters:
   Before reduction:         656
   After  reduction:         492
 
 Variance of |WF0>:       0.0877805670
 
 The contributions to the second order correlation energy in atomic units.
-----------------------------------------------------------------------------------------------------------------------------
  IT.      VJTU        VJTI        ATVX        AIVX        VJAI        BVAT        BJAT        BJAI        TOTAL       RNORM  
-----------------------------------------------------------------------------------------------------------------------------
   1    -0.000000   -0.000387   -0.000000   -0.000596   -0.000456   -0.005143   -0.020304   -0.058486   -0.085372    0.020483
   2    -0.000000   -0.000408   -0.000000   -0.000579   -0.000481   -0.005801   -0.020585   -0.060535   -0.088391    0.003815
   3    -0.000000   -0.000411    0.000000   -0.000573   -0.000491   -0.005810   -0.020591   -0.060388   -0.088265    0.001050
   4    -0.000000   -0.000412    0.000000   -0.000570   -0.000493   -0.005814   -0.020560   -0.060322   -0.088171    0.000139
   5    -0.000000   -0.000412    0.000000   -0.000570   -0.000494   -0.005813   -0.020559   -0.060323   -0.088171    0.000048
   6    -0.000000   -0.000413    0.000000   -0.000570   -0.000494   -0.005812   -0.020559   -0.060325   -0.088173    0.000009
   7    -0.000000   -0.000413    0.000000   -0.000570   -0.000494   -0.005812   -0.020559   -0.060325   -0.088172    0.000002
-----------------------------------------------------------------------------------------------------------------------------
 
  FINAL CASPT2 RESULT:
 
      Reference energy:         -52.1985760300
      E2 (Non-variational):      -0.0881724130
      E2 (Variational):          -0.0881724161
      Total energy:             -52.2867484461
      Residual norm:              0.0000005151
      Reference weight:           0.90587
 
      Contributions to the CASPT2 correlation energy
      Active & Virtual Only:         -0.0058122657
      One Inactive Excited:          -0.0211290022
      Two Inactive Excited:          -0.0612311451
 
 
++ Denominators, etc.
--------------------------------------------------------------------------------------------------------------
 Report on small energy denominators, large coefficients, and large energy contributions.
CASE  SYMM ACTIVE-MIX  NON-ACTIVE INDICES          DENOMINATOR     RHS VALUE       COEFFICIENT     CONTRIBUTION
BVATP    1  Mu1.0001  Se1.007 Se1.007               1.25295963      0.05774702     -0.06739321     -0.00389176
BVATP    1  Mu1.0001  Se1.009 Se1.009               1.57400051      0.04020178     -0.02877759     -0.00115691
BJATP    1  Mu1.0001  In1.003 Se1.007 Se1.007       1.00556652      0.04607491     -0.09620397     -0.00443259
BJATP    1  Mu1.0001  In1.004 Se1.009 Se1.007       0.99964433     -0.05752639      0.07821358     -0.00449934
BJATM    1  Mu1.0001  In1.004 Se1.009 Se1.007       0.99964433      0.07000676     -0.09448552     -0.00661462
BJATM    1  Mu1.0001  In1.003 Se1.010 Se1.007       1.47578012     -0.07189062      0.04881398     -0.00350927
BJAIP    1  Se1.007 In1.003 Se1.007 In1.003         0.90910102      0.07951484     -0.11640184     -0.00925567
BJAIP    1  Se1.008 In1.003 Se1.008 In1.003         1.13397261      0.04766354     -0.05044155     -0.00240422
BJAIP    1  Se1.009 In1.003 Se1.009 In1.003         1.23014191      0.03031992     -0.02883351     -0.00087423
BJAIP    1  Se1.007 In1.003 Se1.010 In1.003         1.37931463      0.05400787     -0.04029401     -0.00217619
BJAIP    1  Se1.010 In1.003 Se1.010 In1.003         1.84952823      0.06596206     -0.03427809     -0.00226105
BJAIP    1  Se1.007 In1.003 Se1.009 In1.004         0.90317883     -0.08098969      0.10641533     -0.00861855
BJAIP    1  Se1.009 In1.003 Se1.010 In1.004         1.37339243     -0.07775813      0.05457932     -0.00424399
BJAIP    1  Se1.009 In1.004 Se1.009 In1.004         0.89725664      0.11046704     -0.12311644     -0.01360031
BJAIM    1  Se1.007 In1.003 Se1.008 In1.004         0.90317883     -0.09539334      0.12584647     -0.01200491
BJAIM    1  Se1.009 In1.003 Se1.009 In1.004         1.37339243      0.07411438     -0.05247128     -0.00388888
--
 
   (Skipping property calculation,
    use PROP keyword to activate)
--
 
  Total CASPT2 energies:
::    CASPT2 Root  1     Total energy:    -52.28674845
 
  A NEW JOBIPH FILE NAMED 'JOBMIX' IS PREPARED.
********************************************************************************
--- Stop Module: caspt2 at Thu Apr 25 13:40:43 2024 /rc=_RC_ALL_IS_WELL_ ---
*** files: xmldump
    saved to directory /home/grierjones/DDCASPT2/delta_ML/BeC/1.70

.##################.
.# Happy landing! #.
.##################.

    Timing: Wall=2.40 User=1.64 System=0.25
************************************
*** WorkDir at /tmp/1.70 removed ***
************************************
