[Molden Format]
[N_Atoms]
                     2
[Atoms] (AU)
N1          1      7           0.00000000      0.00000000      0.00000000
O2          2      8           0.00000000      0.00000000      3.21253441
[Charge] (Mulliken)
  0.100246625154220     
 -0.100246625154305     
[GTO] (AU)
   1
   s  14
  7.476171500E+04  1.182599996E-04
  1.112365400E+04  5.172899983E-04
  2.512685700E+03  2.266659992E-03
  7.037772900E+02  9.145289970E-03
  2.254787900E+02  3.239342989E-02
  7.961581000E+01  9.770792967E-02
  3.023728300E+01  2.317036792E-01
  1.226362200E+01  3.768898887E-01
  5.265086000E+00  3.177420689E-01
  2.333471000E+00  8.211308973E-02
  9.018560000E-01  3.312089989E-03
  3.583360000E-01  3.720819988E-03
  1.410930000E-01  3.165419989E-03
  4.938300000E-02  4.595799985E-04
   s  14
  7.476171500E+04 -2.707000010E-05
  1.112365400E+04 -1.183700004E-04
  2.512685700E+03 -5.203800020E-04
  7.037772900E+02 -2.102930008E-03
  2.254787900E+02 -7.568200028E-03
  7.961581000E+01 -2.346767009E-02
  3.023728300E+01 -6.042901023E-02
  1.226362200E+01 -1.170549104E-01
  5.265086000E+00 -1.555321506E-01
  2.333471000E+00 -2.468935009E-02
  9.018560000E-01  3.625054514E-01
  3.583360000E-01  5.550845021E-01
  1.410930000E-01  2.148376908E-01
  4.938300000E-02  8.983850034E-03
   p   9
  1.266665700E+02  1.233630000E-03
  2.983738900E+01  9.493409996E-03
  9.394038000E+00  4.293961998E-02
  3.405104000E+00  1.362925399E-01
  1.350000000E+00  2.921362499E-01
  5.576960000E-01  3.887887598E-01
  2.324490000E-01  2.946801399E-01
  9.426400000E-02  8.012875997E-02
  3.299200000E-02  5.405199998E-04
 
   2
   s  14
  1.053749500E+05  1.238600013E-04
  1.567924000E+04  5.120100053E-04
  3.534544700E+03  2.152910022E-03
  9.873651600E+02  8.528440089E-03
  3.159787500E+02  3.018049031E-02
  1.116542800E+02  9.099702095E-02
  4.269945100E+01  2.177936423E-01
  1.739559600E+01  3.686245738E-01
  7.438309000E+00  3.366707335E-01
  3.222862000E+00  9.657630101E-02
  1.253877000E+00  2.144520022E-03
  4.951550000E-01  1.194350012E-03
  1.916650000E-01  5.390200056E-04
  6.708300000E-02  2.103400022E-04
   s  14
  1.053749500E+05 -2.815000008E-05
  1.567924000E+04 -1.163000003E-04
  3.534544700E+03 -4.909200013E-04
  9.873651600E+02 -1.946160005E-03
  3.159787500E+02 -7.005300019E-03
  1.116542800E+02 -2.167814006E-02
  4.269945100E+01 -5.641213015E-02
  1.739559600E+01 -1.127053003E-01
  7.438309000E+00 -1.589119704E-01
  3.222862000E+00 -3.355083009E-02
  1.253877000E+00  3.531902810E-01
  4.951550000E-01  5.534199315E-01
  1.916650000E-01  2.301839106E-01
  6.708300000E-02  1.127267003E-02
   p   9
  2.000000000E+02  9.173000030E-04
  4.653336700E+01  7.377140024E-03
  1.462180900E+01  3.483515011E-02
  5.313064000E+00  1.144397004E-01
  2.102525000E+00  2.554966408E-01
  8.502230000E-01  3.722557412E-01
  3.375970000E-01  3.323314911E-01
  1.288920000E-01  1.400847905E-01
  4.511200000E-02  2.395784008E-02
 
[MO]
Sym=     1a  
Ene=   -20.6510
Spin= Alpha
Occup=    1.00000
   1        -0.00000845
   2        -0.00012264
   3        -0.00000000
   4         0.00000000
   5        -0.00000339
   6         0.99999962
   7        -0.00175653
   8        -0.00000000
   9         0.00000000
  10        -0.00045781
Sym=     1a  
Ene=   -20.7110
Spin= Beta
Occup=    1.00000
   1        -0.00004659
   2        -0.00049815
   3        -0.00000000
   4         0.00000000
   5        -0.00039459
   6         1.00001212
   7         0.00165886
   8         0.00000000
   9        -0.00000000
  10        -0.00067924
Sym=     2a  
Ene=   -15.6870
Spin= Alpha
Occup=    1.00000
   1         1.00002430
   2        -0.00247168
   3        -0.00000000
   4        -0.00000000
   5         0.00108737
   6        -0.00013980
   7        -0.00108200
   8        -0.00000000
   9        -0.00000000
  10         0.00074120
Sym=     2a  
Ene=   -15.6040
Spin= Beta
Occup=    1.00000
   1         0.99996547
   2        -0.00884917
   3        -0.00000000
   4         0.00000000
   5         0.00072129
   6        -0.00006637
   7        -0.00035061
   8         0.00000000
   9        -0.00000000
  10         0.00008673
Sym=     3a  
Ene=    -1.2552
Spin= Alpha
Occup=    1.00000
   1         0.00421812
   2        -0.69621748
   3        -0.00000000
   4         0.00000000
   5        -0.11495728
   6         0.00821215
   7        -0.57043866
   8         0.00000000
   9         0.00000000
  10         0.05669791
Sym=     3a  
Ene=    -1.4111
Spin= Beta
Occup=    1.00000
   1        -0.00875748
   2         0.07780803
   3         0.00000000
   4        -0.00000000
   5         0.03864903
   6        -0.00309476
   7         0.97109962
   8         0.00000000
   9         0.00000000
  10        -0.07374025
Sym=     4a  
Ene=    -1.0604
Spin= Alpha
Occup=    1.00000
   1         0.00723617
   2         0.70565423
   3         0.00000000
   4        -0.00000000
   5        -0.10169281
   6        -0.00608237
   7        -0.78073691
   8         0.00000000
   9         0.00000000
  10        -0.05172223
Sym=     4a  
Ene=    -0.8382
Spin= Beta
Occup=    1.00000
   1        -0.00311276
   2         0.75380534
   3         0.00000000
   4        -0.00000000
   5         0.03224047
   6        -0.00803538
   7        -0.24566828
   8        -0.00000000
   9         0.00000000
  10        -0.49928278
Sym=     5a  
Ene=    -0.6260
Spin= Alpha
Occup=    1.00000
   1         0.00000000
   2        -0.00000000
   3         0.72462892
   4         0.38506453
   5         0.00000000
   6        -0.00000000
   7        -0.00000000
   8         0.43046322
   9         0.22874620
  10         0.00000000
Sym=     5a  
Ene=    -0.6866
Spin= Beta
Occup=    1.00000
   1        -0.00000000
   2        -0.00000000
   3        -0.01937318
   4         0.03645718
   5         0.00000000
   6         0.00000000
   7        -0.00000000
   8        -0.46670470
   9         0.87826247
  10        -0.00000000
Sym=     6a  
Ene=    -0.5953
Spin= Alpha
Occup=    1.00000
   1        -0.00000000
   2         0.00000000
   3        -0.46362084
   4         0.87245915
   5         0.00000000
   6        -0.00000000
   7        -0.00000000
   8        -0.03739444
   9         0.07037026
  10        -0.00000000
Sym=     6a  
Ene=    -0.6070
Spin= Beta
Occup=    1.00000
   1         0.00000000
   2         0.00000000
   3         0.05188018
   4         0.02756889
   5        -0.00000000
   6        -0.00000000
   7        -0.00000000
   8         0.87578357
   9         0.46538742
  10         0.00000000
Sym=     7a  
Ene=    -0.5602
Spin= Alpha
Occup=    1.00000
   1         0.00628632
   2         0.09485661
   3        -0.00000000
   4         0.00000000
   5        -0.88503276
   6         0.01867926
   7         0.32704362
   8         0.00000000
   9         0.00000000
  10         0.33158236
Sym=     7a  
Ene=    -0.5955
Spin= Beta
Occup=    1.00000
   1         0.02597161
   2         0.69071590
   3        -0.00000000
   4        -0.00000000
   5        -0.20196477
   6        -0.00200699
   7        -0.03263809
   8        -0.00000000
   9        -0.00000000
  10         0.82421769
Sym=     8a  
Ene=    -0.5107
Spin= Alpha
Occup=    1.00000
   1         0.00000000
   2         0.00000000
   3         0.51428335
   4         0.27328784
   5        -0.00000000
   6         0.00000000
   7         0.00000000
   8        -0.77735182
   9        -0.41308124
  10         0.00000000
Sym=     8a  
Ene=     0.1993
Spin= Beta
Occup=    0.00000
   1        -0.00000000
   2        -0.00000000
   3         0.47178980
   4        -0.88783180
   5        -0.00000000
   6         0.00000000
   7         0.00000000
   8        -0.07174718
   9         0.13501654
  10        -0.00000000
Sym=     9a  
Ene=     0.1436
Spin= Alpha
Occup=    0.00000
   1        -0.00000000
   2        -0.00000000
   3        -0.08953576
   4         0.16849176
   5        -0.00000000
   6         0.00000000
   7         0.00000000
   8         0.47070436
   9        -0.88578918
  10        -0.00000000
Sym=     9a  
Ene=     0.2036
Spin= Beta
Occup=    0.00000
   1        -0.00000000
   2        -0.00000000
   3         0.88706419
   4         0.47138190
   5        -0.00000000
   6         0.00000000
   7         0.00000000
   8        -0.15025836
   9        -0.07984661
  10        -0.00000000
Sym=    10a  
Ene=     0.2111
Spin= Alpha
Occup=    0.00000
   1         0.02686737
   2         0.32064841
   3        -0.00000000
   4        -0.00000000
   5         0.55634828
   6        -0.01493633
   7        -0.21794230
   8        -0.00000000
   9        -0.00000000
  10         1.00289884
Sym=    10a  
Ene=     0.2692
Spin= Beta
Occup=    0.00000
   1         0.01372127
   2         0.20746661
   3         0.00000000
   4         0.00000000
   5         1.03587670
   6        -0.02394363
   7        -0.29147131
   8        -0.00000000
   9         0.00000000
  10         0.43311356
