[Molden Format]
[N_Atoms]
                     2
[Atoms] (AU)
N1          1      7           0.00000000      0.00000000      0.00000000
O2          2      8           0.00000000      0.00000000      3.21253441
[Charge] (Mulliken)
  0.275018345851514     
 -0.275018345851535     
[GTO] (AU)
   1
   s  14
  7.476171500E+04  1.182599996E-04
  1.112365400E+04  5.172899983E-04
  2.512685700E+03  2.266659992E-03
  7.037772900E+02  9.145289970E-03
  2.254787900E+02  3.239342989E-02
  7.961581000E+01  9.770792967E-02
  3.023728300E+01  2.317036792E-01
  1.226362200E+01  3.768898887E-01
  5.265086000E+00  3.177420689E-01
  2.333471000E+00  8.211308973E-02
  9.018560000E-01  3.312089989E-03
  3.583360000E-01  3.720819988E-03
  1.410930000E-01  3.165419989E-03
  4.938300000E-02  4.595799985E-04
   s  14
  7.476171500E+04 -2.707000010E-05
  1.112365400E+04 -1.183700004E-04
  2.512685700E+03 -5.203800020E-04
  7.037772900E+02 -2.102930008E-03
  2.254787900E+02 -7.568200028E-03
  7.961581000E+01 -2.346767009E-02
  3.023728300E+01 -6.042901023E-02
  1.226362200E+01 -1.170549104E-01
  5.265086000E+00 -1.555321506E-01
  2.333471000E+00 -2.468935009E-02
  9.018560000E-01  3.625054514E-01
  3.583360000E-01  5.550845021E-01
  1.410930000E-01  2.148376908E-01
  4.938300000E-02  8.983850034E-03
   p   9
  1.266665700E+02  1.233630000E-03
  2.983738900E+01  9.493409996E-03
  9.394038000E+00  4.293961998E-02
  3.405104000E+00  1.362925399E-01
  1.350000000E+00  2.921362499E-01
  5.576960000E-01  3.887887598E-01
  2.324490000E-01  2.946801399E-01
  9.426400000E-02  8.012875997E-02
  3.299200000E-02  5.405199998E-04
 
   2
   s  14
  1.053749500E+05  1.238600013E-04
  1.567924000E+04  5.120100053E-04
  3.534544700E+03  2.152910022E-03
  9.873651600E+02  8.528440089E-03
  3.159787500E+02  3.018049031E-02
  1.116542800E+02  9.099702095E-02
  4.269945100E+01  2.177936423E-01
  1.739559600E+01  3.686245738E-01
  7.438309000E+00  3.366707335E-01
  3.222862000E+00  9.657630101E-02
  1.253877000E+00  2.144520022E-03
  4.951550000E-01  1.194350012E-03
  1.916650000E-01  5.390200056E-04
  6.708300000E-02  2.103400022E-04
   s  14
  1.053749500E+05 -2.815000008E-05
  1.567924000E+04 -1.163000003E-04
  3.534544700E+03 -4.909200013E-04
  9.873651600E+02 -1.946160005E-03
  3.159787500E+02 -7.005300019E-03
  1.116542800E+02 -2.167814006E-02
  4.269945100E+01 -5.641213015E-02
  1.739559600E+01 -1.127053003E-01
  7.438309000E+00 -1.589119704E-01
  3.222862000E+00 -3.355083009E-02
  1.253877000E+00  3.531902810E-01
  4.951550000E-01  5.534199315E-01
  1.916650000E-01  2.301839106E-01
  6.708300000E-02  1.127267003E-02
   p   9
  2.000000000E+02  9.173000030E-04
  4.653336700E+01  7.377140024E-03
  1.462180900E+01  3.483515011E-02
  5.313064000E+00  1.144397004E-01
  2.102525000E+00  2.554966408E-01
  8.502230000E-01  3.722557412E-01
  3.375970000E-01  3.323314911E-01
  1.288920000E-01  1.400847905E-01
  4.511200000E-02  2.395784008E-02
 
[MO]
Sym=     1a  
Ene=   -20.5810
Spin= Alpha
Occup=    2.00000
   1        -0.00002165
   2        -0.00033413
   3        -0.00000000
   4        -0.00000000
   5        -0.00023436
   6         1.00000814
   7         0.00006791
   8         0.00000000
   9         0.00000000
  10        -0.00075694
Sym=     2a  
Ene=   -15.7970
Spin= Alpha
Occup=    2.00000
   1         0.99999215
   2        -0.00613773
   3        -0.00000000
   4        -0.00000000
   5         0.00080764
   6        -0.00010760
   7        -0.00060083
   8        -0.00000000
   9         0.00000000
  10         0.00025892
Sym=     3a  
Ene=    -1.2596
Spin= Alpha
Occup=    2.00000
   1        -0.00576351
   2         0.37518098
   3        -0.00000000
   4        -0.00000000
   5         0.11616368
   6        -0.00619908
   7         0.83113569
   8         0.00000000
   9         0.00000000
  10        -0.05463769
Sym=     4a  
Ene=    -1.0072
Spin= Alpha
Occup=    2.00000
   1        -0.00763623
   2        -0.90668276
   3        -0.00000000
   4        -0.00000000
   5         0.05987768
   6         0.00770436
   7         0.50818573
   8        -0.00000000
   9         0.00000000
  10         0.09259563
Sym=     5a  
Ene=    -0.5410
Spin= Alpha
Occup=    2.00000
   1        -0.00834184
   2        -0.11529812
   3        -0.00000000
   4        -0.00000000
   5         0.84951447
   6        -0.01744841
   7        -0.29808402
   8        -0.00000000
   9        -0.00000000
  10        -0.39555993
Sym=     6a  
Ene=    -0.5180
Spin= Alpha
Occup=    2.00000
   1        -0.00000000
   2        -0.00000000
   3         0.10264568
   4         0.10764880
   5         0.00000000
   6        -0.00000000
   7        -0.00000000
   8         0.67108667
   9         0.70379657
  10        -0.00000000
Sym=     7a  
Ene=    -0.4941
Spin= Alpha
Occup=    2.00000
   1         0.00000000
   2         0.00000000
   3        -0.18135402
   4         0.17292535
   5         0.00000000
   6        -0.00000000
   7        -0.00000000
   8        -0.68074614
   9         0.64910754
  10         0.00000000
Sym=     8a  
Ene=    -0.2617
Spin= Alpha
Occup=    1.00000
   1         0.00000000
   2         0.00000000
   3        -0.68677210
   4        -0.72024653
   5         0.00000000
   6        -0.00000000
   7        -0.00000000
   8         0.17842288
   9         0.18711951
  10         0.00000000
Sym=     9a  
Ene=    -0.0000
Spin= Alpha
Occup=    0.00000
   1         0.00000000
   2         0.00000000
   3        -0.70530422
   4         0.67252425
   5        -0.00000000
   6         0.00000000
   7         0.00000000
   8         0.25870450
   9        -0.24668086
  10         0.00000000
Sym=    10a  
Ene=     0.1899
Spin= Alpha
Occup=    0.00000
   1         0.02710544
   2         0.34397695
   3         0.00000000
   4         0.00000000
   5         0.61449922
   6        -0.01603698
   7        -0.22697423
   8         0.00000000
   9        -0.00000000
  10         0.97653265
