[Molden Format]
[N_Atoms]
                     2
[Atoms] (AU)
LI1         1      3           0.00000000      0.00000000      0.00000000
LI2         2      3           0.00000000      0.00000000      2.07869874
[Charge] (Mulliken)
  2.846611835138901E-013
 -2.935429677108914E-013
[GTO] (AU)
   1
   s  14
  9.497934400E+03  9.668999974E-05
  1.416811200E+03  6.087099984E-04
  3.214599400E+02  3.101519992E-03
  9.112416300E+01  1.266904997E-02
  2.999989100E+01  4.248012989E-02
  1.101763100E+01  1.150183297E-01
  4.372801000E+00  2.398650094E-01
  1.831256000E+00  3.584300090E-01
  8.022610000E-01  3.048527792E-01
  3.626480000E-01  8.824261976E-02
  1.139950000E-01 -8.445899977E-04
  5.123700000E-02 -7.943959979E-03
  2.246800000E-02 -3.764419990E-03
  7.860000000E-03 -8.868999976E-05
   s  14
  9.497934400E+03 -1.244999993E-05
  1.416811200E+03 -7.838999954E-05
  3.214599400E+02 -4.007099976E-04
  9.112416300E+01 -1.645249990E-03
  2.999989100E+01 -5.634599967E-03
  1.101763100E+01 -1.590780991E-02
  4.372801000E+00 -3.612581979E-02
  1.831256000E+00 -6.459927962E-02
  8.022610000E-01 -1.008321794E-01
  3.626480000E-01 -9.757613942E-02
  1.139950000E-01  2.301215886E-01
  5.123700000E-02  6.102389764E-01
  2.246800000E-02  2.849406083E-01
  7.860000000E-03  4.026899976E-03
   p   9
  1.311950400E+01  1.524940000E-03
  3.077424200E+00  8.314830000E-03
  1.098800500E+00  1.933203000E-02
  4.357784000E-01  4.934293000E-02
  1.802432000E-01  1.623554000E-01
  7.613330000E-02  3.847505400E-01
  3.254650000E-02  4.336100400E-01
  1.401820000E-02  1.287005900E-01
  4.906400000E-03 -1.018520000E-03
 
   2
   s  14
  9.497934400E+03  9.668999974E-05
  1.416811200E+03  6.087099984E-04
  3.214599400E+02  3.101519992E-03
  9.112416300E+01  1.266904997E-02
  2.999989100E+01  4.248012989E-02
  1.101763100E+01  1.150183297E-01
  4.372801000E+00  2.398650094E-01
  1.831256000E+00  3.584300090E-01
  8.022610000E-01  3.048527792E-01
  3.626480000E-01  8.824261976E-02
  1.139950000E-01 -8.445899977E-04
  5.123700000E-02 -7.943959979E-03
  2.246800000E-02 -3.764419990E-03
  7.860000000E-03 -8.868999976E-05
   s  14
  9.497934400E+03 -1.244999993E-05
  1.416811200E+03 -7.838999954E-05
  3.214599400E+02 -4.007099976E-04
  9.112416300E+01 -1.645249990E-03
  2.999989100E+01 -5.634599967E-03
  1.101763100E+01 -1.590780991E-02
  4.372801000E+00 -3.612581979E-02
  1.831256000E+00 -6.459927962E-02
  8.022610000E-01 -1.008321794E-01
  3.626480000E-01 -9.757613942E-02
  1.139950000E-01  2.301215886E-01
  5.123700000E-02  6.102389764E-01
  2.246800000E-02  2.849406083E-01
  7.860000000E-03  4.026899976E-03
   p   9
  1.311950400E+01  1.524940000E-03
  3.077424200E+00  8.314830000E-03
  1.098800500E+00  1.933203000E-02
  4.357784000E-01  4.934293000E-02
  1.802432000E-01  1.623554000E-01
  7.613330000E-02  3.847505400E-01
  3.254650000E-02  4.336100400E-01
  1.401820000E-02  1.287005900E-01
  4.906400000E-03 -1.018520000E-03
 
[MO]
Sym=     1a  
Ene=    -2.7693
Spin= Alpha
Occup=    1.00000
   1         0.67943491
   2         0.00338660
   3        -0.00000000
   4        -0.00000000
   5         0.01037362
   6         0.67943491
   7         0.00338660
   8         0.00000000
   9         0.00000000
  10        -0.01037362
Sym=     1a  
Ene=    -2.7693
Spin= Beta
Occup=    1.00000
   1         0.67943491
   2         0.00338660
   3        -0.00000000
   4        -0.00000000
   5         0.01037362
   6         0.67943491
   7         0.00338660
   8         0.00000000
   9         0.00000000
  10        -0.01037362
Sym=     2a  
Ene=    -2.5733
Spin= Alpha
Occup=    1.00000
   1        -0.73500652
   2        -0.00179786
   3         0.00000000
   4        -0.00000000
   5         0.00084182
   6         0.73500652
   7         0.00179786
   8        -0.00000000
   9        -0.00000000
  10         0.00084182
Sym=     2a  
Ene=    -2.5733
Spin= Beta
Occup=    1.00000
   1        -0.73500652
   2        -0.00179786
   3         0.00000000
   4        -0.00000000
   5         0.00084182
   6         0.73500652
   7         0.00179786
   8        -0.00000000
   9        -0.00000000
  10         0.00084182
Sym=     3a  
Ene=    -0.2183
Spin= Alpha
Occup=    1.00000
   1        -0.09328404
   2         0.51618383
   3        -0.00000000
   4        -0.00000000
   5         0.02561095
   6        -0.09328404
   7         0.51618383
   8         0.00000000
   9         0.00000000
  10        -0.02561095
Sym=     3a  
Ene=    -0.2183
Spin= Beta
Occup=    1.00000
   1        -0.09328404
   2         0.51618383
   3        -0.00000000
   4        -0.00000000
   5         0.02561095
   6        -0.09328404
   7         0.51618383
   8         0.00000000
   9         0.00000000
  10        -0.02561095
Sym=     4a  
Ene=    -0.0056
Spin= Alpha
Occup=    0.00000
   1         0.00000000
   2         0.00000000
   3         0.51217506
   4        -0.05965347
   5        -0.00000000
   6         0.00000000
   7        -0.00000000
   8         0.51217506
   9        -0.05965347
  10         0.00000000
Sym=     4a  
Ene=    -0.0056
Spin= Beta
Occup=    0.00000
   1         0.00000000
   2         0.00000000
   3         0.51217506
   4        -0.05965347
   5        -0.00000000
   6         0.00000000
   7        -0.00000000
   8         0.51217506
   9        -0.05965347
  10         0.00000000
Sym=     5a  
Ene=    -0.0056
Spin= Alpha
Occup=    0.00000
   1         0.00000000
   2        -0.00000000
   3         0.05965347
   4         0.51217506
   5         0.00000000
   6        -0.00000000
   7         0.00000000
   8         0.05965347
   9         0.51217506
  10         0.00000000
Sym=     5a  
Ene=    -0.0056
Spin= Beta
Occup=    0.00000
   1         0.00000000
   2        -0.00000000
   3         0.05965347
   4         0.51217506
   5         0.00000000
   6        -0.00000000
   7         0.00000000
   8         0.05965347
   9         0.51217506
  10         0.00000000
Sym=     6a  
Ene=     0.0180
Spin= Alpha
Occup=    0.00000
   1         0.02574985
   2        -0.47597275
   3        -0.00000000
   4        -0.00000000
   5         0.44259820
   6        -0.02574985
   7         0.47597275
   8         0.00000000
   9        -0.00000000
  10         0.44259820
Sym=     6a  
Ene=     0.0180
Spin= Beta
Occup=    0.00000
   1         0.02574985
   2        -0.47597275
   3        -0.00000000
   4        -0.00000000
   5         0.44259820
   6        -0.02574985
   7         0.47597275
   8         0.00000000
   9        -0.00000000
  10         0.44259820
Sym=     7a  
Ene=     0.1729
Spin= Alpha
Occup=    0.00000
   1         0.28085744
   2         0.25379280
   3         0.00000000
   4         0.00000000
   5        -1.46575950
   6         0.28085744
   7         0.25379280
   8        -0.00000000
   9        -0.00000000
  10         1.46575950
Sym=     7a  
Ene=     0.1729
Spin= Beta
Occup=    0.00000
   1         0.28085744
   2         0.25379280
   3         0.00000000
   4         0.00000000
   5        -1.46575950
   6         0.28085744
   7         0.25379280
   8        -0.00000000
   9        -0.00000000
  10         1.46575950
Sym=     8a  
Ene=     0.1792
Spin= Alpha
Occup=    0.00000
   1         0.00000000
   2         0.00000000
   3        -1.46187557
   4        -1.43116573
   5        -0.00000000
   6         0.00000000
   7         0.00000000
   8         1.46187557
   9         1.43116573
  10         0.00000000
Sym=     8a  
Ene=     0.1792
Spin= Beta
Occup=    0.00000
   1         0.00000000
   2         0.00000000
   3        -1.46187557
   4        -1.43116573
   5        -0.00000000
   6         0.00000000
   7         0.00000000
   8         1.46187557
   9         1.43116573
  10         0.00000000
Sym=     9a  
Ene=     0.1792
Spin= Alpha
Occup=    0.00000
   1         0.00000000
   2         0.00000000
   3         1.43116573
   4        -1.46187557
   5        -0.00000000
   6         0.00000000
   7         0.00000000
   8        -1.43116573
   9         1.46187557
  10         0.00000000
Sym=     9a  
Ene=     0.1792
Spin= Beta
Occup=    0.00000
   1         0.00000000
   2         0.00000000
   3         1.43116573
   4        -1.46187557
   5        -0.00000000
   6         0.00000000
   7         0.00000000
   8        -1.43116573
   9         1.46187557
  10         0.00000000
Sym=    10a  
Ene=     1.7029
Spin= Alpha
Occup=    0.00000
   1        -2.44387537
   2       -10.06707807
   3         0.00000000
   4         0.00000000
   5        -2.44556559
   6         2.44387537
   7        10.06707807
   8        -0.00000000
   9        -0.00000000
  10        -2.44556559
Sym=    10a  
Ene=     1.7029
Spin= Beta
Occup=    0.00000
   1        -2.44387537
   2       -10.06707807
   3         0.00000000
   4         0.00000000
   5        -2.44556559
   6         2.44387537
   7        10.06707807
   8        -0.00000000
   9        -0.00000000
  10        -2.44556559
