[Molden Format]
[N_Atoms]
                     2
[Atoms] (AU)
LI1         1      3           0.00000000      0.00000000      0.00000000
LI2         2      3           0.00000000      0.00000000      2.07869874
[Charge] (Mulliken)
   1.00471949946717     
  0.995280500532817     
[GTO] (AU)
   1
   s  14
  9.497934400E+03  9.668999974E-05
  1.416811200E+03  6.087099984E-04
  3.214599400E+02  3.101519992E-03
  9.112416300E+01  1.266904997E-02
  2.999989100E+01  4.248012989E-02
  1.101763100E+01  1.150183297E-01
  4.372801000E+00  2.398650094E-01
  1.831256000E+00  3.584300090E-01
  8.022610000E-01  3.048527792E-01
  3.626480000E-01  8.824261976E-02
  1.139950000E-01 -8.445899977E-04
  5.123700000E-02 -7.943959979E-03
  2.246800000E-02 -3.764419990E-03
  7.860000000E-03 -8.868999976E-05
   s  14
  9.497934400E+03 -1.244999993E-05
  1.416811200E+03 -7.838999954E-05
  3.214599400E+02 -4.007099976E-04
  9.112416300E+01 -1.645249990E-03
  2.999989100E+01 -5.634599967E-03
  1.101763100E+01 -1.590780991E-02
  4.372801000E+00 -3.612581979E-02
  1.831256000E+00 -6.459927962E-02
  8.022610000E-01 -1.008321794E-01
  3.626480000E-01 -9.757613942E-02
  1.139950000E-01  2.301215886E-01
  5.123700000E-02  6.102389764E-01
  2.246800000E-02  2.849406083E-01
  7.860000000E-03  4.026899976E-03
   p   9
  1.311950400E+01  1.524940000E-03
  3.077424200E+00  8.314830000E-03
  1.098800500E+00  1.933203000E-02
  4.357784000E-01  4.934293000E-02
  1.802432000E-01  1.623554000E-01
  7.613330000E-02  3.847505400E-01
  3.254650000E-02  4.336100400E-01
  1.401820000E-02  1.287005900E-01
  4.906400000E-03 -1.018520000E-03
 
   2
   s  14
  9.497934400E+03  9.668999974E-05
  1.416811200E+03  6.087099984E-04
  3.214599400E+02  3.101519992E-03
  9.112416300E+01  1.266904997E-02
  2.999989100E+01  4.248012989E-02
  1.101763100E+01  1.150183297E-01
  4.372801000E+00  2.398650094E-01
  1.831256000E+00  3.584300090E-01
  8.022610000E-01  3.048527792E-01
  3.626480000E-01  8.824261976E-02
  1.139950000E-01 -8.445899977E-04
  5.123700000E-02 -7.943959979E-03
  2.246800000E-02 -3.764419990E-03
  7.860000000E-03 -8.868999976E-05
   s  14
  9.497934400E+03 -1.244999993E-05
  1.416811200E+03 -7.838999954E-05
  3.214599400E+02 -4.007099976E-04
  9.112416300E+01 -1.645249990E-03
  2.999989100E+01 -5.634599967E-03
  1.101763100E+01 -1.590780991E-02
  4.372801000E+00 -3.612581979E-02
  1.831256000E+00 -6.459927962E-02
  8.022610000E-01 -1.008321794E-01
  3.626480000E-01 -9.757613942E-02
  1.139950000E-01  2.301215886E-01
  5.123700000E-02  6.102389764E-01
  2.246800000E-02  2.849406083E-01
  7.860000000E-03  4.026899976E-03
   p   9
  1.311950400E+01  1.524940000E-03
  3.077424200E+00  8.314830000E-03
  1.098800500E+00  1.933203000E-02
  4.357784000E-01  4.934293000E-02
  1.802432000E-01  1.623554000E-01
  7.613330000E-02  3.847505400E-01
  3.254650000E-02  4.336100400E-01
  1.401820000E-02  1.287005900E-01
  4.906400000E-03 -1.018520000E-03
 
[MO]
Sym=     1a  
Ene=    -3.2923
Spin= Alpha
Occup=    2.00000
   1         0.08321836
   2        -0.00872642
   3        -0.00000000
   4        -0.00000000
   5         0.00606343
   6         0.98999057
   7         0.01332891
   8        -0.00000000
   9         0.00000000
  10        -0.01086553
Sym=     2a  
Ene=    -3.2442
Spin= Alpha
Occup=    1.99960
   1        -0.99868861
   2        -0.00938951
   3         0.00000000
   4        -0.00000000
   5        -0.00846616
   6         0.16547199
   7         0.00554450
   8         0.00000000
   9        -0.00000000
  10         0.00589034
Sym=     3a  
Ene=    -0.0054
Spin= Alpha
Occup=    0.00040
   1        -2.19286914
   2        -8.27745843
   3        -0.00000000
   4         0.00000000
   5        -1.62655528
   6         1.92911381
   7         8.45777477
   8        -0.00000000
   9         0.00000000
  10        -2.67908819
Sym=     4a  
Ene=    -0.3804
Spin= Alpha
Occup=    0.00000
   1         0.15832092
   2         0.78023006
   3         0.00000000
   4        -0.00000000
   5         0.18374326
   6        -0.19003448
   7         0.08253420
   8         0.00000000
   9        -0.00000000
  10         0.69911291
Sym=     5a  
Ene=    -0.3780
Spin= Alpha
Occup=    0.00000
   1         0.00000000
   2         0.00000000
   3        -0.50825425
   4         0.08872539
   5         0.00000000
   6        -0.00000000
   7         0.00000000
   8        -0.50765692
   9         0.08862111
  10         0.00000000
Sym=     6a  
Ene=    -0.3780
Spin= Alpha
Occup=    0.00000
   1         0.00000000
   2         0.00000000
   3         0.08872539
   4         0.50825425
   5         0.00000000
   6        -0.00000000
   7         0.00000000
   8         0.08862111
   9         0.50765692
  10         0.00000000
Sym=     7a  
Ene=    -0.2978
Spin= Alpha
Occup=    0.00000
   1        -0.29397231
   2        -1.38175584
   3         0.00000000
   4        -0.00000000
   5         1.03763196
   6         0.01330045
   7         0.64723664
   8         0.00000000
   9        -0.00000000
  10        -0.79390438
Sym=     8a  
Ene=    -0.2219
Spin= Alpha
Occup=    0.00000
   1         0.00000000
   2         0.00000000
   3        -1.36504899
   4        -1.52369420
   5         0.00000000
   6        -0.00000000
   7        -0.00000000
   8         1.36515097
   9         1.52380803
  10        -0.00000000
Sym=     9a  
Ene=    -0.2219
Spin= Alpha
Occup=    0.00000
   1         0.00000000
   2         0.00000000
   3        -1.52369420
   4         1.36504899
   5        -0.00000000
   6         0.00000000
   7         0.00000000
   8         1.52380803
   9        -1.36515097
  10         0.00000000
Sym=    10a  
Ene=     0.1154
Spin= Alpha
Occup=    0.00000
   1        -1.06685264
   2        -5.55598701
   3         0.00000000
   4        -0.00000000
   5        -2.13767799
   6         1.51571985
   7         5.47207386
   8         0.00000000
   9         0.00000000
  10        -0.17085104
