[Molden Format]
[N_Atoms]
                     2
[Atoms] (AU)
LI1         1      3           0.00000000      0.00000000      0.00000000
O2          2      8           0.00000000      0.00000000      1.32280829
[Charge] (Mulliken)
  0.270730749172438     
 -0.270730749172465     
[GTO] (AU)
   1
   s  14
  9.497934400E+03  9.668999974E-05
  1.416811200E+03  6.087099984E-04
  3.214599400E+02  3.101519992E-03
  9.112416300E+01  1.266904997E-02
  2.999989100E+01  4.248012989E-02
  1.101763100E+01  1.150183297E-01
  4.372801000E+00  2.398650094E-01
  1.831256000E+00  3.584300090E-01
  8.022610000E-01  3.048527792E-01
  3.626480000E-01  8.824261976E-02
  1.139950000E-01 -8.445899977E-04
  5.123700000E-02 -7.943959979E-03
  2.246800000E-02 -3.764419990E-03
  7.860000000E-03 -8.868999976E-05
   s  14
  9.497934400E+03 -1.244999993E-05
  1.416811200E+03 -7.838999954E-05
  3.214599400E+02 -4.007099976E-04
  9.112416300E+01 -1.645249990E-03
  2.999989100E+01 -5.634599967E-03
  1.101763100E+01 -1.590780991E-02
  4.372801000E+00 -3.612581979E-02
  1.831256000E+00 -6.459927962E-02
  8.022610000E-01 -1.008321794E-01
  3.626480000E-01 -9.757613942E-02
  1.139950000E-01  2.301215886E-01
  5.123700000E-02  6.102389764E-01
  2.246800000E-02  2.849406083E-01
  7.860000000E-03  4.026899976E-03
   p   9
  1.311950400E+01  1.524940000E-03
  3.077424200E+00  8.314830000E-03
  1.098800500E+00  1.933203000E-02
  4.357784000E-01  4.934293000E-02
  1.802432000E-01  1.623554000E-01
  7.613330000E-02  3.847505400E-01
  3.254650000E-02  4.336100400E-01
  1.401820000E-02  1.287005900E-01
  4.906400000E-03 -1.018520000E-03
 
   2
   s  14
  1.053749500E+05  1.238600013E-04
  1.567924000E+04  5.120100053E-04
  3.534544700E+03  2.152910022E-03
  9.873651600E+02  8.528440089E-03
  3.159787500E+02  3.018049031E-02
  1.116542800E+02  9.099702095E-02
  4.269945100E+01  2.177936423E-01
  1.739559600E+01  3.686245738E-01
  7.438309000E+00  3.366707335E-01
  3.222862000E+00  9.657630101E-02
  1.253877000E+00  2.144520022E-03
  4.951550000E-01  1.194350012E-03
  1.916650000E-01  5.390200056E-04
  6.708300000E-02  2.103400022E-04
   s  14
  1.053749500E+05 -2.815000008E-05
  1.567924000E+04 -1.163000003E-04
  3.534544700E+03 -4.909200013E-04
  9.873651600E+02 -1.946160005E-03
  3.159787500E+02 -7.005300019E-03
  1.116542800E+02 -2.167814006E-02
  4.269945100E+01 -5.641213015E-02
  1.739559600E+01 -1.127053003E-01
  7.438309000E+00 -1.589119704E-01
  3.222862000E+00 -3.355083009E-02
  1.253877000E+00  3.531902810E-01
  4.951550000E-01  5.534199315E-01
  1.916650000E-01  2.301839106E-01
  6.708300000E-02  1.127267003E-02
   p   9
  2.000000000E+02  9.173000030E-04
  4.653336700E+01  7.377140024E-03
  1.462180900E+01  3.483515011E-02
  5.313064000E+00  1.144397004E-01
  2.102525000E+00  2.554966408E-01
  8.502230000E-01  3.722557412E-01
  3.375970000E-01  3.323314911E-01
  1.288920000E-01  1.400847905E-01
  4.511200000E-02  2.395784008E-02
 
[MO]
Sym=     1a  
Ene=   -21.1160
Spin= Alpha
Occup=    1.00000
   1        -0.00150566
   2        -0.00076959
   3        -0.00000000
   4        -0.00000000
   5         0.00077398
   6         1.00006096
   7         0.00119016
   8        -0.00000000
   9         0.00000000
  10        -0.00451123
Sym=     1a  
Ene=   -21.1150
Spin= Beta
Occup=    1.00000
   1        -0.00152012
   2        -0.00077749
   3        -0.00000000
   4        -0.00000000
   5         0.00076208
   6         1.00006274
   7         0.00123232
   8        -0.00000000
   9         0.00000000
  10        -0.00450734
Sym=     2a  
Ene=    -3.4777
Spin= Alpha
Occup=    1.00000
   1         0.88530658
   2        -0.02918891
   3         0.00000000
   4        -0.00000000
   5         0.02506672
   6        -0.05412944
   7         0.12915682
   8         0.00000000
   9         0.00000000
  10        -0.10925157
Sym=     2a  
Ene=    -3.4737
Spin= Beta
Occup=    1.00000
   1         0.88593131
   2        -0.03017037
   3         0.00000000
   4         0.00000000
   5         0.02596463
   6        -0.05418921
   7         0.12848030
   8         0.00000000
   9         0.00000000
  10        -0.10868722
Sym=     3a  
Ene=    -1.3104
Spin= Alpha
Occup=    1.00000
   1        -0.42704390
   2        -0.03216048
   3         0.00000000
   4        -0.00000000
   5        -0.00604310
   6         0.02705446
   7         1.05394364
   8         0.00000000
   9         0.00000000
  10         0.18048879
Sym=     3a  
Ene=    -1.3097
Spin= Beta
Occup=    1.00000
   1        -0.42523336
   2        -0.03159784
   3         0.00000000
   4        -0.00000000
   5        -0.00747309
   6         0.02698601
   7         1.05355661
   8         0.00000000
   9         0.00000000
  10         0.18261056
Sym=     4a  
Ene=    -0.9421
Spin= Alpha
Occup=    1.00000
   1        -0.00000000
   2        -0.00000000
   3        -0.05116557
   4        -0.00498857
   5         0.00000000
   6         0.00000000
   7        -0.00000000
   8         1.01394194
   9         0.09885792
  10        -0.00000000
Sym=     4a  
Ene=    -0.9412
Spin= Beta
Occup=    1.00000
   1        -0.00000000
   2        -0.00000000
   3        -0.05922817
   4        -0.00591248
   5         0.00000000
   6         0.00000000
   7        -0.00000000
   8         1.01645151
   9         0.10146776
  10        -0.00000000
Sym=     5a  
Ene=    -0.9421
Spin= Alpha
Occup=    1.00000
   1         0.00000000
   2        -0.00000000
   3         0.00498857
   4        -0.05116557
   5        -0.00000000
   6         0.00000000
   7        -0.00000000
   8        -0.09885792
   9         1.01394194
  10         0.00000000
Sym=     5a  
Ene=    -0.9412
Spin= Beta
Occup=    1.00000
   1         0.00000000
   2        -0.00000000
   3         0.00591248
   4        -0.05922817
   5        -0.00000000
   6         0.00000000
   7        -0.00000000
   8        -0.10146776
   9         1.01645151
  10         0.00000000
Sym=     6a  
Ene=    -0.2268
Spin= Alpha
Occup=    1.00000
   1        -0.10128533
   2        -0.89241484
   3        -0.00000000
   4         0.00000000
   5         0.48921327
   6         0.00569345
   7         0.14679917
   8        -0.00000000
   9        -0.00000000
  10        -0.03706855
Sym=     6a  
Ene=     0.0304
Spin= Beta
Occup=    0.00000
   1        -0.13802146
   2        -0.97364393
   3        -0.00000000
   4         0.00000000
   5         0.34599639
   6         0.01858516
   7         0.23716771
   8        -0.00000000
   9        -0.00000000
  10        -0.02982950
Sym=     7a  
Ene=     0.0679
Spin= Alpha
Occup=    0.00000
   1        -0.00000000
   2         0.00000000
   3         1.08304828
   4         0.00922952
   5         0.00000000
   6        -0.00000000
   7        -0.00000000
   8        -0.37129559
   9        -0.00316411
  10        -0.00000000
Sym=     7a  
Ene=     0.1051
Spin= Beta
Occup=    0.00000
   1        -0.00000000
   2         0.00000000
   3         1.08262637
   4         0.00993819
   5         0.00000000
   6        -0.00000000
   7        -0.00000000
   8        -0.36364961
   9        -0.00333820
  10        -0.00000000
Sym=     8a  
Ene=     0.0679
Spin= Alpha
Occup=    0.00000
   1        -0.00000000
   2         0.00000000
   3        -0.00922952
   4         1.08304828
   5        -0.00000000
   6         0.00000000
   7         0.00000000
   8         0.00316411
   9        -0.37129559
  10         0.00000000
Sym=     8a  
Ene=     0.1051
Spin= Beta
Occup=    0.00000
   1        -0.00000000
   2         0.00000000
   3        -0.00993819
   4         1.08262637
   5        -0.00000000
   6         0.00000000
   7         0.00000000
   8         0.00333820
   9        -0.36364961
  10        -0.00000000
Sym=     9a  
Ene=     0.1220
Spin= Alpha
Occup=    0.00000
   1        -0.16704927
   2        -0.63320481
   3         0.00000000
   4        -0.00000000
   5        -0.99748002
   6         0.08700592
   7         0.60288748
   8        -0.00000000
   9         0.00000000
  10         0.17022394
Sym=     9a  
Ene=     0.1395
Spin= Beta
Occup=    0.00000
   1         0.14962606
   2         0.50174922
   3        -0.00000000
   4         0.00000000
   5         1.05628498
   6        -0.08524723
   7        -0.57506943
   8         0.00000000
   9         0.00000000
  10        -0.17456346
Sym=    10a  
Ene=     0.3471
Spin= Alpha
Occup=    0.00000
   1         0.88435394
   2         0.09554841
   3         0.00000000
   4         0.00000000
   5        -0.10642859
   6        -0.04543578
   7        -0.45161950
   8        -0.00000000
   9        -0.00000000
  10         1.19843356
Sym=    10a  
Ene=     0.3497
Spin= Beta
Occup=    0.00000
   1         0.88274836
   2         0.08200550
   3         0.00000000
   4         0.00000000
   5        -0.10053091
   6        -0.04525496
   7        -0.45057736
   8        -0.00000000
   9        -0.00000000
  10         1.19774108
