[Molden Format]
[N_Atoms]
                     2
[Atoms] (AU)
LI1         1      3           0.00000000      0.00000000      0.00000000
O2          2      8           0.00000000      0.00000000      1.70075351
[Charge] (Mulliken)
  0.743441502770978     
 -0.743441502770999     
[GTO] (AU)
   1
   s  14
  9.497934400E+03  9.668999974E-05
  1.416811200E+03  6.087099984E-04
  3.214599400E+02  3.101519992E-03
  9.112416300E+01  1.266904997E-02
  2.999989100E+01  4.248012989E-02
  1.101763100E+01  1.150183297E-01
  4.372801000E+00  2.398650094E-01
  1.831256000E+00  3.584300090E-01
  8.022610000E-01  3.048527792E-01
  3.626480000E-01  8.824261976E-02
  1.139950000E-01 -8.445899977E-04
  5.123700000E-02 -7.943959979E-03
  2.246800000E-02 -3.764419990E-03
  7.860000000E-03 -8.868999976E-05
   s  14
  9.497934400E+03 -1.244999993E-05
  1.416811200E+03 -7.838999954E-05
  3.214599400E+02 -4.007099976E-04
  9.112416300E+01 -1.645249990E-03
  2.999989100E+01 -5.634599967E-03
  1.101763100E+01 -1.590780991E-02
  4.372801000E+00 -3.612581979E-02
  1.831256000E+00 -6.459927962E-02
  8.022610000E-01 -1.008321794E-01
  3.626480000E-01 -9.757613942E-02
  1.139950000E-01  2.301215886E-01
  5.123700000E-02  6.102389764E-01
  2.246800000E-02  2.849406083E-01
  7.860000000E-03  4.026899976E-03
   p   9
  1.311950400E+01  1.524940000E-03
  3.077424200E+00  8.314830000E-03
  1.098800500E+00  1.933203000E-02
  4.357784000E-01  4.934293000E-02
  1.802432000E-01  1.623554000E-01
  7.613330000E-02  3.847505400E-01
  3.254650000E-02  4.336100400E-01
  1.401820000E-02  1.287005900E-01
  4.906400000E-03 -1.018520000E-03
 
   2
   s  14
  1.053749500E+05  1.238600013E-04
  1.567924000E+04  5.120100053E-04
  3.534544700E+03  2.152910022E-03
  9.873651600E+02  8.528440089E-03
  3.159787500E+02  3.018049031E-02
  1.116542800E+02  9.099702095E-02
  4.269945100E+01  2.177936423E-01
  1.739559600E+01  3.686245738E-01
  7.438309000E+00  3.366707335E-01
  3.222862000E+00  9.657630101E-02
  1.253877000E+00  2.144520022E-03
  4.951550000E-01  1.194350012E-03
  1.916650000E-01  5.390200056E-04
  6.708300000E-02  2.103400022E-04
   s  14
  1.053749500E+05 -2.815000008E-05
  1.567924000E+04 -1.163000003E-04
  3.534544700E+03 -4.909200013E-04
  9.873651600E+02 -1.946160005E-03
  3.159787500E+02 -7.005300019E-03
  1.116542800E+02 -2.167814006E-02
  4.269945100E+01 -5.641213015E-02
  1.739559600E+01 -1.127053003E-01
  7.438309000E+00 -1.589119704E-01
  3.222862000E+00 -3.355083009E-02
  1.253877000E+00  3.531902810E-01
  4.951550000E-01  5.534199315E-01
  1.916650000E-01  2.301839106E-01
  6.708300000E-02  1.127267003E-02
   p   9
  2.000000000E+02  9.173000030E-04
  4.653336700E+01  7.377140024E-03
  1.462180900E+01  3.483515011E-02
  5.313064000E+00  1.144397004E-01
  2.102525000E+00  2.554966408E-01
  8.502230000E-01  3.722557412E-01
  3.375970000E-01  3.323314911E-01
  1.288920000E-01  1.400847905E-01
  4.511200000E-02  2.395784008E-02
 
[MO]
Sym=     1a  
Ene=   -20.4400
Spin= Alpha
Occup=    1.00000
   1        -0.00128670
   2        -0.00107451
   3        -0.00000000
   4        -0.00000000
   5        -0.00042995
   6         1.00009464
   7         0.00308253
   8        -0.00000000
   9         0.00000000
  10        -0.00151792
Sym=     1a  
Ene=   -20.3930
Spin= Beta
Occup=    1.00000
   1        -0.00073588
   2        -0.00053486
   3        -0.00000000
   4        -0.00000000
   5        -0.00005032
   6         1.00004066
   7         0.00048149
   8        -0.00000000
   9         0.00000000
  10        -0.00150762
Sym=     2a  
Ene=    -2.7292
Spin= Alpha
Occup=    1.00000
   1         0.92063006
   2        -0.01283870
   3        -0.00000000
   4         0.00000000
   5         0.00827434
   6        -0.02250680
   7         0.12190905
   8        -0.00000000
   9        -0.00000000
  10        -0.09220170
Sym=     2a  
Ene=    -2.6410
Spin= Beta
Occup=    1.00000
   1         0.92765117
   2        -0.00800888
   3        -0.00000000
   4         0.00000000
   5         0.00657515
   6        -0.02232379
   7         0.12096509
   8        -0.00000000
   9        -0.00000000
  10        -0.07712277
Sym=     3a  
Ene=    -1.1530
Spin= Alpha
Occup=    1.00000
   1        -0.40056542
   2        -0.01781597
   3        -0.00000000
   4        -0.00000000
   5         0.03836733
   6         0.00583126
   7         1.02862979
   8         0.00000000
   9        -0.00000000
  10        -0.00789726
Sym=     3a  
Ene=    -0.9841
Spin= Beta
Occup=    1.00000
   1        -0.38951535
   2         0.01506496
   3        -0.00000000
   4        -0.00000000
   5         0.06218839
   6         0.00500044
   7         1.00371359
   8         0.00000000
   9        -0.00000000
  10         0.00383018
Sym=     4a  
Ene=    -0.5217
Spin= Alpha
Occup=    1.00000
   1         0.00000000
   2         0.00000000
   3         0.09891110
   4         0.01771676
   5         0.00000000
   6        -0.00000000
   7        -0.00000000
   8         0.94515827
   9         0.16929484
  10         0.00000000
Sym=     4a  
Ene=    -0.4652
Spin= Beta
Occup=    1.00000
   1         0.00000000
   2         0.00000000
   3         0.15305991
   4         0.01875257
   5         0.00000000
   6        -0.00000000
   7        -0.00000000
   8         0.92831386
   9         0.11373499
  10         0.00000000
Sym=     5a  
Ene=    -0.5217
Spin= Alpha
Occup=    1.00000
   1         0.00000000
   2         0.00000000
   3        -0.01771676
   4         0.09891110
   5         0.00000000
   6        -0.00000000
   7        -0.00000000
   8        -0.16929484
   9         0.94515827
  10         0.00000000
Sym=     5a  
Ene=    -0.4652
Spin= Beta
Occup=    1.00000
   1         0.00000000
   2         0.00000000
   3        -0.01875257
   4         0.15305991
   5         0.00000000
   6        -0.00000000
   7        -0.00000000
   8        -0.11373499
   9         0.92831386
  10         0.00000000
Sym=     6a  
Ene=    -0.3946
Spin= Alpha
Occup=    1.00000
   1         0.55042910
   2         0.17647757
   3        -0.00000000
   4        -0.00000000
   5        -0.11715463
   6        -0.01179172
   7        -0.13731371
   8         0.00000000
   9        -0.00000000
  10         1.09805232
Sym=     6a  
Ene=     0.0159
Spin= Beta
Occup=    0.00000
   1        -0.05348513
   2        -0.84829886
   3         0.00000000
   4         0.00000000
   5         0.55074780
   6         0.00210446
   7         0.09266298
   8        -0.00000000
   9        -0.00000000
  10        -0.06363856
Sym=     7a  
Ene=     0.0187
Spin= Alpha
Occup=    0.00000
   1         0.02329263
   2        -0.82469307
   3         0.00000000
   4         0.00000000
   5         0.54952571
   6        -0.00052303
   7         0.05526084
   8        -0.00000000
   9        -0.00000000
  10         0.08376453
Sym=     7a  
Ene=     0.1504
Spin= Beta
Occup=    0.00000
   1        -0.00000000
   2        -0.00000000
   3        -0.31622279
   4        -1.00876754
   5        -0.00000000
   6         0.00000000
   7         0.00000000
   8         0.15447137
   9         0.49277189
  10         0.00000000
Sym=     8a  
Ene=     0.1421
Spin= Alpha
Occup=    0.00000
   1        -0.00000000
   2        -0.00000000
   3        -0.20433965
   4        -1.04380832
   5        -0.00000000
   6         0.00000000
   7         0.00000000
   8         0.08998845
   9         0.45967921
  10         0.00000000
Sym=     8a  
Ene=     0.1504
Spin= Beta
Occup=    0.00000
   1         0.00000000
   2         0.00000000
   3        -1.00876754
   4         0.31622279
   5         0.00000000
   6        -0.00000000
   7        -0.00000000
   8         0.49277189
   9        -0.15447137
  10        -0.00000000
Sym=     9a  
Ene=     0.1421
Spin= Alpha
Occup=    0.00000
   1        -0.00000000
   2        -0.00000000
   3        -1.04380832
   4         0.20433965
   5         0.00000000
   6         0.00000000
   7         0.00000000
   8         0.45967921
   9        -0.08998845
  10         0.00000000
Sym=     9a  
Ene=     0.2188
Spin= Beta
Occup=    0.00000
   1         0.24461745
   2         0.69528974
   3        -0.00000000
   4        -0.00000000
   5         0.95151958
   6        -0.08888903
   7        -0.71834176
   8         0.00000000
   9         0.00000000
  10         0.05734294
Sym=    10a  
Ene=     0.2112
Spin= Alpha
Occup=    0.00000
   1        -0.14454801
   2        -0.70318605
   3         0.00000000
   4         0.00000000
   5        -0.96845015
   6         0.08748258
   7         0.67258105
   8        -0.00000000
   9        -0.00000000
  10         0.12935137
Sym=    10a  
Ene=     0.4540
Spin= Beta
Occup=    0.00000
   1         0.50741018
   2        -0.05372947
   3         0.00000000
   4         0.00000000
   5        -0.20619605
   6         0.00346375
   7        -0.02344271
   8         0.00000000
   9        -0.00000000
  10         1.10667522
