   This run of MOLCAS is using the pymolcas driver

                             OPE
                             OPE          NMOL  CASOP  ENMOLC A   SO
                 OPE        NMOLC        AS  OP EN  MO LC     AS  OP
                OPENM       OL CA        SO  PE NM  OL CA     SOP EN
                OP EN      MO   LC       AS  OP ENMOL  CASO   PENMOL
                OP  EN     MO   LC       AS  OP EN     MO     LC ASO
               OP   E  NMOL  C  AS       OP  EN MO     LC     AS  OP
               OP  E   NMO   LC AS        OPEN  MO     LCASOP EN   M
               O  PEN   MO  LCA  SO
            OPE   NMO   L   CAS    OP
        OPENMOL  CASOP     ENMOL   CASOPE
     OPENMOLCA   SOPENMOLCASOPEN   MOLCASOPE
    OPENMOLCAS   OP           EN   MOL    CAS
    OPENMOLCAS       OP  ENM        O     LCA
    OPENMOLCAS    OPEN  MOLCASO     P  E  NMO
    OPENMOLCAS     OP               E  N  MOL
    OPENMOLCA   SO           PENM   O  L  CAS    OPEN    MO    LCAS
    OPENMOLCA   SOP           ENM   O  L  CAS   OP  EN  MOLC  AS   O
    OPENMOLCA   SOPE           NM      O  LCA   S      OP  EN MO
    OPENMOLC                AS         O  PEN   M      OL  CA  SOPE
    OPENMO        LCASOPE  NMOL        C  ASO   P      ENMOLC     AS
    OPE     NMO      LCA  SO     P     E   NM   OL  CA SO  PE N   MO
          OPENMOLCA            SOPE   NMO        LCAS  O    P  ENMO
     OPENMOLCASOPENMOLCASOPENMOLCASOPENMOLCA
        OPENMOLCASOPENMOLCASOPENMOLCASOPE
            OPENMOLCASOPENMOLCASOPENM
               OPENMOLCASOPENMOLCA        version: ea724fe96-dirty
                   OPENMOLCASO
                       OPE                tag:

 OpenMolcas is free software; you can redistribute it and/or modify it
 under the terms of the GNU Lesser General Public License version 2.1.
 OpenMolcas is distributed in the hope that it will be useful, but it
 is provided "as is" and without any express or implied warranties.
 For more details see the full text of the license in the file
 LICENSE or in <http://www.gnu.org/licenses/>.

                 Copyright (C) The OpenMolcas Authors
           For the author list and the recommended citation,
                   consult the file CONTRIBUTORS.md

           *************************************************
           * pymolcas version py2.28                       *
           *   build c4a6d18ded8cb6cad61d2372a9abd97c      *
           *   (after the EMIL interpreter by V. Veryazov) *
           *************************************************

configuration info
------------------
C Compiler ID: Intel
C flags: -std=gnu99
Fortran Compiler ID: Intel
Fortran flags: -fpp -i8 -r8 -heap-arrays
Definitions: _MOLCAS_;_I8_;_LINUX_
Parallel: OFF (GA=OFF)


   -------------------------------------------------------------------------------
  |
  |              Project: 5.45
  |       Submitted from: /home/grierjones/DDCASPT2/iron_oxo_DDCASPT2/cluster/5.45
  |         Scratch area: /tmp/5.45
  |      Save outputs to: /home/grierjones/DDCASPT2/iron_oxo_DDCASPT2/cluster/5.45
  |               Molcas: /home/grierjones/Test/build
  |
  | Scratch area is empty
  |
  |       MOLCAS_DRIVER = /usr/local/pymolcas
  | MOLCAS_KEEP_WORKDIR = NO
  |  MOLCAS_NEW_WORKDIR = YES
  |       MOLCAS_NPROCS = 1
  |        MOLCAS_PRINT = NORMAL
  |       MOLCAS_SOURCE = /home/grierjones/Test/build
  |    MOLCAS_STRUCTURE = 0
  |
   -------------------------------------------------------------------------------

++ ---------   Input file   ---------

&GATEWAY
coord=5.45.xyz
Basis = ANO-RCC-VDZP
Group = nosymm
Expert
End of Input

&SEWARD
End of Input

&SCF
UHF
charge
2
spin
5

>>> COPY $WorkDir/5.45.scf.h5 $CurrDir/

&RASSCF
Title= RASSCF
FileOrb
/home/grierjones/DDCASPT2/iron_oxo_DDCASPT2/cluster/5.43/5.43.RasOrb
NACTEL
10 0 0
RAS2
14
Symmetry
1
Spin
5
charge
2
orblisting
all
ITERation
300 200

>>> COPY $WorkDir/5.45.rasscf.h5 $CurrDir/

>>> COPY $WorkDir/GMJ_Fock_MO.csv $CurrDir/5.45.GMJ_Fock_MO.csv

>>> COPY $WorkDir/GMJ_PT2_Fock_MO.csv $CurrDir/5.45.GMJ_PT2_Fock_MO.csv

&MOTRA
Frozen=0
LUMORB

>>> COPY $WorkDir/GMJ_one_int_indx.csv $CurrDir/5.45.GMJ_one_int_indx.csv

>>> COPY $WorkDir/GMJ_one_int.csv $CurrDir/5.45.GMJ_one_int.csv

>>> COPY $WorkDir/GMJ_two_int_indx.csv $CurrDir/5.45.GMJ_two_int_indx.csv

>>> COPY $WorkDir/GMJ_two_int.csv $CurrDir/5.45.GMJ_two_int.csv

&CASPT2
Frozen
0
MAXITER
50

>>> FOREACH i IN (B,E,F,G,H)

  >>> FOREACH j IN (P,M)

    >>> IF (-FILE GMJ_e2_${i}_${j}.csv)

      >>> COPY $WorkDir/GMJ_RHS_${i}_${j}.csv $CurrDir/GMJ_RHS_${i}_${j}.csv

      >>> COPY $WorkDir/GMJ_IVECW_${i}_${j}.csv $CurrDir/GMJ_IVECW_${i}_${j}.csv

      >>> COPY $WorkDir/GMJ_IVECX_${i}_${j}.csv $CurrDir/GMJ_IVECX_${i}_${j}.csv

      >>> COPY $WorkDir/GMJ_IVECC2_${i}_${j}.csv $CurrDir/GMJ_IVECC2_${i}_${j}.csv

      >>> COPY $WorkDir/GMJ_e2_${i}_${j}.csv $CurrDir/GMJ_e2_${i}_${j}.csv

    >>> END IF

  >>> END FOREACH

>>> END FOREACH

>>> FOREACH i IN (A,C,D)

  >>> IF (-FILE GMJ_e2_$i.csv)

    >>> COPY $WorkDir/GMJ_RHS_$i.csv $CurrDir/GMJ_RHS_$i.csv

    >>> COPY $WorkDir/GMJ_IVECW_$i.csv $CurrDir/GMJ_IVECW_$i.csv

    >>> COPY $WorkDir/GMJ_IVECX_$i.csv $CurrDir/GMJ_IVECX_$i.csv

    >>> COPY $WorkDir/GMJ_IVECC2_$i.csv $CurrDir/GMJ_IVECC2_$i.csv

    >>> COPY $WorkDir/GMJ_e2_$i.csv $CurrDir/GMJ_e2_$i.csv

  >>> END IF

>>> END FOREACH

-- ----------------------------------

--- Start Module: gateway at Sun Dec 22 22:12:23 2024 ---
 
()()()()()()()()()()()()()()()()()()()()()()()()()()()()()()()()()()()()()()()()()()()()()()()()()()

                                              &GATEWAY

                                   only a single process is used
                       available to each process: 2.0 GB of memory, 1 thread?
()()()()()()()()()()()()()()()()()()()()()()()()()()()()()()()()()()()()()()()()()()()()()()()()()()
 
 ###############################################################################
 ###############################################################################
 ###                                                                         ###
 ###                                                                         ###
 ###                                                                         ###
 ###    WARNING: EXPERT option is ON!                                        ###
 ###                                                                         ###
 ###                                                                         ###
 ###############################################################################
 ###############################################################################
 
++    Symmetry information:
      ---------------------
 
                    Character Table for C1 
 
                             E  
                    a        1  x, y, xy, Rz, z, xz, Ry, yz, Rx, I
--
 
 
++    Basis set information:
      ----------------------
 
 
      Basis set label: O.ANO-RCC...3S2P1D.
 
      Electronic valence basis set:
      ------------------
      Associated Effective Charge   8.000000 au
      Associated Actual Charge      8.000000 au
      Nuclear Model: Point charge
 
      Shell  nPrim  nBasis  Cartesian Spherical Contaminant
         s      14       3        X                  
         p       9       2        X                  
         d       4       1                 X         
 
 
      Basis set label: FE.ANO-RCC...5S4P2D1F.
 
      Electronic valence basis set:
      ------------------
      Associated Effective Charge  26.000000 au
      Associated Actual Charge     26.000000 au
      Nuclear Model: Point charge
 
      Shell  nPrim  nBasis  Cartesian Spherical Contaminant
         s      21       5        X                  
         p      15       4        X                  
         d      10       2                 X         
         f       6       1                 X         
--
 
 
++    Molecular structure info:
      -------------------------
 
                    ************************************************ 
                    **** Cartesian Coordinates / Bohr, Angstrom **** 
                    ************************************************ 
 
     Center  Label                x              y              z                     x              y              z
        1      O1               0.000000       0.000000       6.658733              0.000000       0.000000       3.523650
        2      FE2              0.000000       0.000000      -3.635172              0.000000       0.000000      -1.923650
--
 
 
            Nuclear Potential Energy             20.20613144 au
 
 ###############################################################################
 ###############################################################################
 ###                                                                         ###
 ###                                                                         ###
 ###    There were warnings during the execution                             ###
 ###    Please, check the output with care!                                  ###
 ###                                                                         ###
 ###                                                                         ###
 ###############################################################################
 ###############################################################################
--- Stop Module: gateway at Sun Dec 22 22:12:24 2024 /rc=_RC_ALL_IS_WELL_ ---
*** files: xmldump
    saved to directory /home/grierjones/DDCASPT2/iron_oxo_DDCASPT2/cluster/5.45

--- Start Module: seward at Sun Dec 22 22:12:24 2024 ---
 
()()()()()()()()()()()()()()()()()()()()()()()()()()()()()()()()()()()()()()()()()()()()()()()()()()

                                              &SEWARD

                                   only a single process is used
                       available to each process: 2.0 GB of memory, 1 thread?
()()()()()()()()()()()()()()()()()()()()()()()()()()()()()()()()()()()()()()()()()()()()()()()()()()
 
 ###############################################################################
 ###############################################################################
 ###                                                                         ###
 ###                                                                         ###
 ###                                                                         ###
 ###    WARNING: EXPERT option is ON!                                        ###
 ###                                                                         ###
 ###                                                                         ###
 ###############################################################################
 ###############################################################################
               SEWARD will generate:
                  Multipole Moment integrals up to order  2
                  Kinetic Energy integrals
                  Nuclear Attraction integrals (point charge)
                  One-Electron Hamiltonian integrals
                  Velocity integrals
                  Relativistic Douglas-Kroll-Hess integrals:
                    - Parametrization         : EXP
                    - DKH order of Hamiltonian: 2
                    - DKH order of Properties : 0
                         - multipole moment operators
                         - electric potential operators
                         - contact operators
                  Atomic mean-field integrals
                  Two-Electron Repulsion integrals
 
                   Integrals are discarded if absolute value <: 0.10E-13
                   Integral cutoff threshold is set to       <: 0.10E-15
 
            Nuclear Potential Energy             20.20613144 au
 
 
      Basis set specifications :
      Symmetry species         a  
      Basis functions           48
 
 
  Input file to MOLDEN was generated!
 
 ###############################################################################
 ###############################################################################
 ###                                                                         ###
 ###                                                                         ###
 ###    There were warnings during the execution                             ###
 ###    Please, check the output with care!                                  ###
 ###                                                                         ###
 ###                                                                         ###
 ###############################################################################
 ###############################################################################
--- Stop Module: seward at Sun Dec 22 22:12:24 2024 /rc=_RC_ALL_IS_WELL_ ---
*** files: 5.45.GssOrb 5.45.guessorb.h5 5.45.guessorb.molden xmldump
    saved to directory /home/grierjones/DDCASPT2/iron_oxo_DDCASPT2/cluster/5.45

*** symbolic link created: INPORB -> 5.45.GssOrb
--- Start Module: scf at Sun Dec 22 22:12:24 2024 ---
 
()()()()()()()()()()()()()()()()()()()()()()()()()()()()()()()()()()()()()()()()()()()()()()()()()()

                                                &SCF

                                   only a single process is used
                       available to each process: 2.0 GB of memory, 1 thread?
()()()()()()()()()()()()()()()()()()()()()()()()()()()()()()()()()()()()()()()()()()()()()()()()()()
 
 *** Possible bug in opening file
 *** isFreeUnit resets the unit number
++    Input section:
      --------------
 
      Header of the integral files:
      
       Integrals generated by seward 4.2.0  , Sun Dec 22 22:12:24 2024
 
 
      Cartesian coordinates in Angstrom:
      -----------------------------------------------------
      No.  Label        X            Y            Z        
      -----------------------------------------------------
       1   O1         0.00000000   0.00000000   3.52365000
       2   FE2        0.00000000   0.00000000  -1.92365000
      -----------------------------------------------------
      Nuclear repulsion energy =   20.20613144
--
 
++    Orbital specifications:
      -----------------------
 
      Symmetry species               1
                                     a
      Frozen orbitals                0
      Start temperature = 0.500
      End temperature   = 0.010
      Temperature Factor= 0.460
      Deleted orbitals               0
      Total number of orbitals      48
      Number of basis functions     48
--
 
      Molecular charge                           2.000
 
++    Optimization specifications:
      ----------------------------
 
      SCF Algorithm: Conventional USCF
      D(i)-D(i-1) density differences are used
      Number of density matrices in core                5
      Maximum number of NDDO SCF iterations           400
      Maximum number of HF SCF iterations             400
      Threshold for SCF energy change            0.10E-08
      Threshold for density matrix               0.10E-03
      Threshold for Fock matrix                  0.15E-03
      Threshold for linear dependence            0.10E-08
      Threshold at which DIIS is turned on       0.15E+00
      Threshold at which QNR/C2DIIS is turned on 0.75E-01
      Threshold for Norm(delta) (QNR/C2DIIS)     0.20E-04
      DIIS extrapolation of the SCF procedure
      All orbitals punched on: UHFORB
--
 
      Input vectors read from INPORB
      Orbital file label: *Guess orbitals
 
 
++ Convergence information
                               UHF SCF        iterations: Energy and convergence statistics
 
Iter     Tot. SCF        One-elec.       Two-elec.     Energy      Max Dij or  Max Fij      DNorm      TNorm      AccCon     Time
         Energy          Energy          Energy        Change      Delta Norm                                                in Sec.
 
 The total and one-electron energies are shifted by a value of      1000. a.u.
 
   1  -343.304983565  -874.240697650   510.729582640   0.00E+00    0.16E+00*   0.36E+00*    0.75E+01   0.18E+03   None         0.
   2  -343.483778440  -870.151221374   506.461311490  -0.18E+00*   0.11E+00*   0.14E+00*    0.10E+01   0.18E+03   EDIIS        0.
   3  -341.592892601  -918.312289254   556.513265208   0.19E+01*   0.63E-01*   0.15E+00*    0.18E+01   0.19E+03   EDIIS        0.
   4  -342.878515265  -858.118025361   495.033378651  -0.13E+01*   0.71E-01*   0.61E-01*    0.15E+01   0.17E+03   EDIIS        0.
   5  -344.052405794  -892.242924653   527.984387414  -0.12E+01*   0.24E-01*   0.36E-01*    0.86E+00   0.18E+03   EDIIS        0.
   6  -344.143766288  -863.901345558   499.551447825  -0.91E-01*   0.16E+00*   0.15E+00*    0.18E+01   0.17E+03   EDIIS        0.
   7  -343.533667168  -903.674183286   539.934384673   0.61E+00*   0.35E-01*   0.38E-01*    0.18E+01   0.18E+03   EDIIS        0.
   8  -344.900611435  -882.071255375   516.964512495  -0.14E+01*   0.27E+00*   0.17E+00*    0.22E+01   0.18E+03   EDIIS        0.
   9  -345.203881296  -870.244323690   504.834310949  -0.30E+00*   0.24E+00*   0.34E+00*    0.17E+01   0.18E+03   EDIIS        0.
  10  -345.288700294  -875.653237969   510.158406231  -0.85E-01*   0.68E-01*   0.95E-01*    0.75E+00   0.18E+03   EDIIS        0.
  11  -345.298122270  -873.641536222   508.137282507  -0.94E-02*   0.35E-01*   0.34E-01*    0.22E+00   0.18E+03   EDIIS        0.
 
       Fermi aufbau procedure completed!
      nOcc(alpha)=   18
      nOcc(beta) =   14
 
  12  -345.299548663  -874.516695888   509.011015780  -0.14E-02*   0.95E-02*   0.89E-02*    0.87E-01   0.18E+03   EDIIS        0.
  13  -345.299820976  -874.179089698   508.673137277  -0.27E-03*   0.83E-02*   0.47E-02*    0.36E-01   0.18E+03   EDIIS        0.
  14  -345.299886401  -874.315014831   508.808996985  -0.65E-04*   0.41E-02*   0.23E-02*    0.17E-01   0.18E+03   EDIIS        0.
  15  -345.299904903  -874.262313497   508.756277149  -0.19E-04*   0.26E-02*   0.15E-02*    0.91E-02   0.18E+03   EDIIS        0.
  16  -345.299910698  -874.282841151   508.776799008  -0.58E-05*   0.73E-03*   0.14E-02*    0.51E-02   0.18E+03   c2DIIS       0.
  17  -345.299913210  -874.269643936   508.763599282  -0.25E-05*   0.83E-03*   0.27E-03*    0.23E-02   0.18E+03   QNRc2DIIS    0.
  18  -345.299913490  -874.279819161   508.773774226  -0.28E-06*   0.63E-03*   0.15E-03*    0.11E-02   0.18E+03   QNRc2DIIS    0.
  19  -345.299913591  -874.278345351   508.772300315  -0.10E-06*   0.37E-03*   0.55E-04     0.86E-03   0.18E+03   QNRc2DIIS    0.
  20  -345.299913609  -874.276938028   508.770892974  -0.18E-07*   0.54E-05    0.75E-06     0.50E-03   0.18E+03   QNRc2DIIS    0.
  21  -345.299913609  -874.276927896   508.770882843  -0.39E-11    0.23E-05    0.46E-06     0.75E-05   0.18E+03   QNRc2DIIS    0.
 
       Convergence after 21 Macro Iterations
--
 
 *****************************************************************************************************************************
 *                                                                                                                           *
 *                                             SCF/KS-DFT Program, Final results                                             *
 *                                                                                                                           *
 *                                                                                                                           *
 *                                                                                                                           *
 *                                                       Final Results                                                       *
 *                                                                                                                           *
 *****************************************************************************************************************************
 
::    Total SCF energy                              -1345.2999136087
      One-electron energy                           -1874.2769278961
      Two-electron energy                             508.7708828426
      Nuclear repulsion energy                         20.2061314448
      Kinetic energy (interpolated)                  1399.7964741025
      Virial theorem                                    0.9610682256
      Total spin, S(S+1)                                8.0095246475
      Total spin, S                                     2.3739388733
      Max non-diagonal density matrix element           0.0000015590
      Max non-diagonal Fock matrix element              0.0000001670
 
 
      All orbitals with orbital energies smaller than  E(LUMO)+0.5 are printed
 
++    Molecular orbitals:
      -------------------
 
      Title: UHF orbitals (alpha)

      Molecular orbitals for symmetry species 1: a  
 
          Orbital            1         2         3         4         5         6         7         8         9        10    
          Energy         -264.6172  -33.4948  -28.5586  -28.5586  -28.5586  -20.8295   -5.4429   -3.9829   -3.9829   -3.9829
          Occ. No.          1.0000    1.0000    1.0000    1.0000    1.0000    1.0000    1.0000    1.0000    1.0000    1.0000
 
        1 O1     1s         0.0000   -0.0000   -0.0000    0.0000    0.0000    1.0000   -0.0000    0.0000    0.0000   -0.0000
        2 O1     2s         0.0000   -0.0000   -0.0000    0.0000    0.0000   -0.0022   -0.0002   -0.0000   -0.0000   -0.0001
        3 O1     3s         0.0000   -0.0000   -0.0000    0.0000    0.0000    0.0004   -0.0003    0.0000   -0.0000   -0.0002
        4 O1     2px        0.0000   -0.0000   -0.0000   -0.0000    0.0000   -0.0000    0.0000   -0.0000   -0.0000    0.0000
        5 O1     3px       -0.0000   -0.0000   -0.0000   -0.0000    0.0000    0.0000    0.0000   -0.0001   -0.0000   -0.0000
        6 O1     2py       -0.0000    0.0000   -0.0000   -0.0000   -0.0000    0.0000   -0.0000    0.0000   -0.0000   -0.0000
        7 O1     3py       -0.0000   -0.0000   -0.0000   -0.0000   -0.0000   -0.0000   -0.0000    0.0000   -0.0001   -0.0000
        8 O1     2pz        0.0000    0.0000    0.0000   -0.0000   -0.0000   -0.0001    0.0002   -0.0000    0.0000    0.0001
        9 O1     3pz        0.0000    0.0000    0.0001   -0.0000   -0.0000    0.0000    0.0005   -0.0000    0.0000    0.0002
       10 O1     3d2-      -0.0000   -0.0000   -0.0000    0.0000   -0.0000   -0.0000    0.0000   -0.0000    0.0000   -0.0000
       11 O1     3d1-      -0.0000    0.0000    0.0000    0.0000    0.0000   -0.0000    0.0000   -0.0000    0.0000    0.0000
       12 O1     3d0       -0.0000   -0.0000   -0.0000    0.0000    0.0000    0.0009   -0.0000    0.0000   -0.0000   -0.0000
       13 O1     3d1+       0.0000   -0.0000    0.0000    0.0000   -0.0000    0.0000    0.0000    0.0000    0.0000   -0.0000
       14 O1     3d2+      -0.0000   -0.0000    0.0000    0.0000   -0.0000   -0.0000   -0.0000   -0.0000   -0.0000    0.0000
       15 FE2    1s         1.0000   -0.0000   -0.0000    0.0000    0.0000   -0.0000    0.0000    0.0000   -0.0000    0.0000
       16 FE2    2s         0.0000    1.0000   -0.0000    0.0000   -0.0000    0.0000   -0.0035   -0.0000    0.0000   -0.0000
       17 FE2    3s        -0.0000    0.0035    0.0000   -0.0000   -0.0000   -0.0000    0.9999    0.0000   -0.0000   -0.0000
       18 FE2    4s         0.0000   -0.0003    0.0000   -0.0000   -0.0000   -0.0000   -0.0076   -0.0000    0.0000    0.0000
       19 FE2    5s        -0.0000    0.0004    0.0000   -0.0000   -0.0000   -0.0000    0.0082    0.0000    0.0000    0.0000
       20 FE2    2px        0.0000   -0.0000    0.0000    0.9998   -0.0218   -0.0000   -0.0000   -0.0033   -0.0010   -0.0000
       21 FE2    3px       -0.0000    0.0000    0.0000    0.0035   -0.0001   -0.0000   -0.0000    0.9566    0.2901    0.0000
       22 FE2    4px        0.0000    0.0000   -0.0000   -0.0006    0.0000   -0.0000    0.0000   -0.0184   -0.0056   -0.0000
       23 FE2    5px       -0.0000    0.0000    0.0000    0.0015   -0.0000    0.0000   -0.0000    0.0174    0.0053    0.0000
       24 FE2    2py       -0.0000    0.0000    0.0000    0.0218    0.9998   -0.0000    0.0000    0.0010   -0.0033    0.0000
       25 FE2    3py        0.0000   -0.0000    0.0000    0.0001    0.0035    0.0000    0.0000   -0.2901    0.9566   -0.0000
       26 FE2    4py       -0.0000    0.0000   -0.0000   -0.0000   -0.0006    0.0000   -0.0000    0.0056   -0.0184    0.0000
       27 FE2    5py        0.0000   -0.0000    0.0000    0.0000    0.0015   -0.0000    0.0000   -0.0053    0.0174   -0.0000
       28 FE2    2pz        0.0000    0.0000    1.0000   -0.0000   -0.0000    0.0000   -0.0000    0.0000    0.0000   -0.0035
       29 FE2    3pz       -0.0000    0.0000    0.0035   -0.0000   -0.0000   -0.0000    0.0000   -0.0000   -0.0000    0.9996
       30 FE2    4pz        0.0000    0.0000   -0.0006    0.0000    0.0000   -0.0000    0.0001    0.0000    0.0000   -0.0192
       31 FE2    5pz        0.0000    0.0000    0.0015   -0.0000   -0.0000   -0.0000    0.0000   -0.0000   -0.0000    0.0182
       32 FE2    3d2-      -0.0000   -0.0000    0.0000    0.0000   -0.0000   -0.0000   -0.0000   -0.0000    0.0000   -0.0000
       33 FE2    4d2-      -0.0000    0.0000   -0.0000   -0.0000    0.0000    0.0000    0.0000   -0.0000   -0.0000    0.0000
       34 FE2    3d1-       0.0000    0.0000    0.0000    0.0000    0.0000    0.0000   -0.0000   -0.0000    0.0000   -0.0000
       35 FE2    4d1-      -0.0000   -0.0000    0.0000    0.0000    0.0000   -0.0000   -0.0000    0.0000   -0.0000    0.0000
       36 FE2    3d0        0.0000    0.0000    0.0000   -0.0000   -0.0000   -0.0000   -0.0000   -0.0000    0.0000    0.0000
       37 FE2    4d0        0.0000    0.0000    0.0000   -0.0000   -0.0000   -0.0000    0.0000   -0.0000   -0.0000   -0.0000
       38 FE2    3d1+       0.0000    0.0000    0.0000    0.0000   -0.0000    0.0000    0.0000    0.0000    0.0000    0.0000
       39 FE2    4d1+       0.0000   -0.0000    0.0000    0.0000   -0.0000   -0.0000   -0.0000   -0.0000   -0.0000   -0.0000
       40 FE2    3d2+      -0.0000    0.0000   -0.0000   -0.0000   -0.0000   -0.0000    0.0000   -0.0000   -0.0000   -0.0000
       41 FE2    4d2+       0.0000   -0.0000    0.0000    0.0000    0.0000    0.0000   -0.0000    0.0000    0.0000    0.0000
       42 FE2    4f3-       0.0000    0.0000   -0.0000   -0.0000   -0.0000    0.0000   -0.0000   -0.0000   -0.0000   -0.0000
       43 FE2    4f2-      -0.0000    0.0000    0.0000    0.0000    0.0000    0.0000   -0.0000   -0.0000    0.0000   -0.0000
       44 FE2    4f1-      -0.0000    0.0000    0.0000    0.0000    0.0000    0.0000   -0.0000    0.0000   -0.0000    0.0000
       45 FE2    4f0        0.0000    0.0000    0.0000   -0.0000    0.0000   -0.0000    0.0000    0.0000    0.0000   -0.0000
       46 FE2    4f1+      -0.0000    0.0000   -0.0000    0.0000   -0.0000   -0.0000   -0.0000   -0.0000   -0.0000    0.0000
       47 FE2    4f2+      -0.0000    0.0000   -0.0000   -0.0000   -0.0000   -0.0000    0.0000    0.0000   -0.0000   -0.0000
       48 FE2    4f3+       0.0000   -0.0000    0.0000    0.0000   -0.0000   -0.0000    0.0000    0.0000    0.0000   -0.0000
 
          Orbital           11        12        13        14        15        16        17        18        19        20    
          Energy           -1.6635   -1.6635   -1.6635   -1.6635   -1.6635   -1.2742   -0.9507   -0.7141   -0.4824   -0.4824
          Occ. No.          1.0000    1.0000    1.0000    1.0000    1.0000    1.0000    1.0000    1.0000    0.0000    0.0000
 
        1 O1     1s         0.0000    0.0000   -0.0000   -0.0000    0.0000    0.0021    0.0004    0.0001   -0.0000    0.0000
        2 O1     2s         0.0003    0.0000   -0.0000   -0.0000    0.0000    0.9992    0.0042    0.0154   -0.0000    0.0000
        3 O1     3s         0.0004    0.0000   -0.0000   -0.0000    0.0000    0.0222    0.0045   -0.0095   -0.0000    0.0000
        4 O1     2px        0.0000   -0.0000    0.0000    0.0000    0.0001    0.0000   -0.0000    0.0000   -0.0010    0.0001
        5 O1     3px        0.0000   -0.0000    0.0000    0.0000    0.0003   -0.0000   -0.0000    0.0000   -0.0024    0.0001
        6 O1     2py       -0.0000    0.0000   -0.0000    0.0001   -0.0000   -0.0000    0.0000   -0.0000   -0.0001   -0.0010
        7 O1     3py        0.0000    0.0000   -0.0000    0.0003   -0.0000   -0.0000    0.0000   -0.0000   -0.0001   -0.0024
        8 O1     2pz       -0.0005   -0.0000    0.0000    0.0000   -0.0000   -0.0147   -0.0059    0.9983    0.0000   -0.0000
        9 O1     3pz       -0.0008   -0.0000    0.0000    0.0000   -0.0000   -0.0054   -0.0065    0.0501    0.0000   -0.0000
       10 O1     3d2-      -0.0000   -0.0000    0.0000    0.0000    0.0000    0.0000   -0.0000   -0.0000   -0.0000    0.0000
       11 O1     3d1-      -0.0000   -0.0000    0.0000   -0.0000    0.0000   -0.0000   -0.0000    0.0000    0.0000    0.0000
       12 O1     3d0        0.0001    0.0000   -0.0000   -0.0000    0.0000    0.0294    0.0002   -0.0046   -0.0000    0.0000
       13 O1     3d1+       0.0000    0.0000   -0.0000   -0.0000   -0.0000    0.0000   -0.0000   -0.0000    0.0000   -0.0000
       14 O1     3d2+       0.0000    0.0000    0.0000    0.0000    0.0000   -0.0000    0.0000   -0.0000   -0.0000   -0.0000
       15 FE2    1s        -0.0000   -0.0000    0.0000   -0.0000   -0.0000   -0.0000   -0.0000    0.0000   -0.0000    0.0000
       16 FE2    2s        -0.0000   -0.0000    0.0000   -0.0000   -0.0000   -0.0000    0.0004    0.0001    0.0000   -0.0000
       17 FE2    3s         0.0000    0.0000   -0.0000   -0.0000   -0.0000   -0.0000    0.0101    0.0005   -0.0000   -0.0000
       18 FE2    4s        -0.0001   -0.0000    0.0000    0.0000   -0.0000    0.0001    0.9283    0.0060    0.0000   -0.0000
       19 FE2    5s        -0.0002   -0.0000    0.0000    0.0000   -0.0000   -0.0004   -0.3714   -0.0028    0.0000   -0.0000
       20 FE2    2px        0.0000    0.0000   -0.0000   -0.0000   -0.0000   -0.0000   -0.0000   -0.0000    0.0005   -0.0000
       21 FE2    3px       -0.0000    0.0000   -0.0000   -0.0000   -0.0000    0.0000    0.0000    0.0000    0.0186   -0.0009
       22 FE2    4px        0.0000    0.0000   -0.0000   -0.0000   -0.0001    0.0000    0.0000    0.0000    0.9981   -0.0507
       23 FE2    5px        0.0000    0.0000   -0.0000   -0.0000   -0.0000   -0.0000    0.0000   -0.0000    0.0323   -0.0016
       24 FE2    2py       -0.0000    0.0000    0.0000   -0.0000    0.0000   -0.0000    0.0000    0.0000    0.0000    0.0005
       25 FE2    3py       -0.0000   -0.0000    0.0000   -0.0000    0.0000    0.0000   -0.0000   -0.0000    0.0009    0.0186
       26 FE2    4py       -0.0000   -0.0000    0.0000   -0.0001    0.0000    0.0000   -0.0000   -0.0000    0.0507    0.9981
       27 FE2    5py       -0.0000   -0.0000    0.0000   -0.0000    0.0000    0.0000    0.0000    0.0000    0.0016    0.0323
       28 FE2    2pz       -0.0000   -0.0000    0.0000    0.0000   -0.0000   -0.0000   -0.0000    0.0000    0.0000   -0.0000
       29 FE2    3pz       -0.0000   -0.0000    0.0000    0.0000   -0.0000   -0.0000   -0.0001    0.0001    0.0000   -0.0000
       30 FE2    4pz       -0.0002   -0.0000    0.0000    0.0000   -0.0000   -0.0001   -0.0038   -0.0086    0.0000   -0.0000
       31 FE2    5pz       -0.0001   -0.0000    0.0000    0.0000   -0.0000   -0.0001   -0.0003   -0.0003    0.0000   -0.0000
       32 FE2    3d2-       0.0000   -0.0323    0.9901    0.0000   -0.0000   -0.0000    0.0000    0.0000   -0.0000   -0.0000
       33 FE2    4d2-      -0.0000    0.0044   -0.1363   -0.0000    0.0000   -0.0000    0.0000    0.0000   -0.0000    0.0000
       34 FE2    3d1-       0.0000    0.0000   -0.0000    0.9902   -0.0301    0.0000    0.0000    0.0000    0.0000    0.0000
       35 FE2    4d1-      -0.0000   -0.0000    0.0000   -0.1363    0.0041    0.0000   -0.0000   -0.0000   -0.0000   -0.0004
       36 FE2    3d0        0.9906    0.0000   -0.0000   -0.0000    0.0000   -0.0001   -0.0001    0.0002    0.0000    0.0000
       37 FE2    4d0       -0.1365   -0.0000    0.0000    0.0000   -0.0000    0.0000   -0.0005   -0.0011    0.0000    0.0000
       38 FE2    3d1+      -0.0000   -0.0000    0.0000    0.0301    0.9902    0.0000    0.0000   -0.0000    0.0000   -0.0000
       39 FE2    4d1+       0.0000    0.0000   -0.0000   -0.0041   -0.1363   -0.0000    0.0000    0.0000   -0.0004    0.0000
       40 FE2    3d2+      -0.0000    0.9901    0.0323   -0.0000    0.0000    0.0000    0.0000    0.0000    0.0000    0.0000
       41 FE2    4d2+       0.0000   -0.1363   -0.0044    0.0000   -0.0000   -0.0000   -0.0000    0.0000    0.0000    0.0000
       42 FE2    4f3-      -0.0000    0.0000   -0.0000    0.0000    0.0000    0.0000    0.0000   -0.0000    0.0000   -0.0000
       43 FE2    4f2-       0.0000   -0.0000    0.0000    0.0000   -0.0000    0.0000   -0.0000    0.0000   -0.0000   -0.0000
       44 FE2    4f1-       0.0000    0.0000   -0.0000    0.0000   -0.0000   -0.0000   -0.0000   -0.0000   -0.0000   -0.0000
       45 FE2    4f0        0.0000    0.0000   -0.0000   -0.0000    0.0000    0.0000   -0.0000   -0.0000   -0.0000    0.0000
       46 FE2    4f1+       0.0000   -0.0000    0.0000    0.0000    0.0000    0.0000    0.0000   -0.0000   -0.0000    0.0000
       47 FE2    4f2+      -0.0000    0.0000    0.0000   -0.0000    0.0000    0.0000   -0.0000    0.0000   -0.0000    0.0000
       48 FE2    4f3+      -0.0000   -0.0000   -0.0000    0.0000   -0.0000   -0.0000    0.0000   -0.0000    0.0000   -0.0000
 
          Orbital           21        22        23        24    
          Energy           -0.4820   -0.2485   -0.1051   -0.1051
          Occ. No.          0.0000    0.0000    0.0000    0.0000
 
        1 O1     1s        -0.0009   -0.0026   -0.0000    0.0000
        2 O1     2s        -0.0126   -0.0345    0.0000   -0.0000
        3 O1     3s        -0.0052   -0.0069   -0.0000    0.0000
        4 O1     2px        0.0000    0.0000   -0.0143    0.9448
        5 O1     3px        0.0000    0.0000   -0.0049    0.3270
        6 O1     2py       -0.0000   -0.0000    0.9448    0.0143
        7 O1     3py       -0.0000   -0.0000    0.3270    0.0049
        8 O1     2pz        0.0308    0.0442    0.0000   -0.0000
        9 O1     3pz        0.0106    0.0086    0.0000   -0.0000
       10 O1     3d2-      -0.0000   -0.0000    0.0000   -0.0000
       11 O1     3d1-      -0.0000    0.0000   -0.0045   -0.0001
       12 O1     3d0       -0.0002    0.0001   -0.0000    0.0000
       13 O1     3d1+      -0.0000   -0.0000    0.0001   -0.0045
       14 O1     3d2+       0.0000   -0.0000   -0.0000   -0.0000
       15 FE2    1s         0.0000    0.0000    0.0000   -0.0000
       16 FE2    2s         0.0000   -0.0002    0.0000   -0.0000
       17 FE2    3s         0.0001   -0.0047    0.0000   -0.0000
       18 FE2    4s         0.0033    0.3714    0.0000   -0.0000
       19 FE2    5s        -0.0008    0.9314    0.0000   -0.0000
       20 FE2    2px       -0.0000   -0.0000    0.0000   -0.0000
       21 FE2    3px       -0.0000   -0.0000    0.0000   -0.0003
       22 FE2    4px       -0.0000   -0.0000    0.0001   -0.0077
       23 FE2    5px       -0.0000    0.0000   -0.0000    0.0016
       24 FE2    2py        0.0000    0.0000   -0.0000   -0.0000
       25 FE2    3py        0.0000   -0.0000   -0.0003   -0.0000
       26 FE2    4py        0.0000    0.0000   -0.0077   -0.0001
       27 FE2    5py        0.0000    0.0000    0.0016    0.0000
       28 FE2    2pz        0.0005    0.0000   -0.0000   -0.0000
       29 FE2    3pz        0.0187    0.0001    0.0000   -0.0000
       30 FE2    4pz        1.0005    0.0031    0.0000   -0.0000
       31 FE2    5pz        0.0324   -0.0004   -0.0000    0.0000
       32 FE2    3d2-      -0.0000    0.0000   -0.0000    0.0000
       33 FE2    4d2-      -0.0000    0.0000    0.0000    0.0000
       34 FE2    3d1-       0.0000   -0.0000    0.0011    0.0000
       35 FE2    4d1-      -0.0000   -0.0000    0.0095    0.0001
       36 FE2    3d0        0.0001   -0.0001   -0.0000   -0.0000
       37 FE2    4d0       -0.0007   -0.0011   -0.0000    0.0000
       38 FE2    3d1+       0.0000    0.0000   -0.0000    0.0011
       39 FE2    4d1+       0.0000    0.0000   -0.0001    0.0095
       40 FE2    3d2+      -0.0000   -0.0000    0.0000   -0.0000
       41 FE2    4d2+      -0.0000   -0.0000    0.0000   -0.0000
       42 FE2    4f3-       0.0000   -0.0000   -0.0000   -0.0000
       43 FE2    4f2-      -0.0000    0.0000    0.0000   -0.0000
       44 FE2    4f1-      -0.0000   -0.0000    0.0001    0.0000
       45 FE2    4f0       -0.0000   -0.0000   -0.0000    0.0000
       46 FE2    4f1+       0.0000    0.0000   -0.0000    0.0001
       47 FE2    4f2+       0.0000    0.0000    0.0000   -0.0000
       48 FE2    4f3+       0.0000    0.0000    0.0000   -0.0000
--
 
 
  Input file to MOLDEN was generated!
 
 
++    Static properties:
      ------------------
 
 
      LoProp Charges per center
 

                   O1       FE2   
      Nuclear      8.0000  26.0000
      Electronic  -8.0001 -23.9999
 
      Total       -0.0001   2.0001
--
 
 
      All orbitals with orbital energies smaller than  E(LUMO)+0.5 are printed
 
++    Molecular orbitals:
      -------------------
 
      Title: UHF orbitals (beta)

      Molecular orbitals for symmetry species 1: a  
 
          Orbital            1         2         3         4         5         6         7         8         9        10    
          Energy         -264.6093  -33.3181  -28.3861  -28.3861  -28.3861  -20.9145   -4.9688   -3.4204   -3.4204   -3.4204
          Occ. No.          1.0000    1.0000    1.0000    1.0000    1.0000    1.0000    1.0000    1.0000    1.0000    1.0000
 
        1 O1     1s         0.0000    0.0000    0.0000   -0.0000   -0.0000    1.0000   -0.0000   -0.0000    0.0000    0.0000
        2 O1     2s         0.0000    0.0000    0.0000   -0.0000   -0.0000    0.0019   -0.0001   -0.0000    0.0000    0.0001
        3 O1     3s         0.0000    0.0000    0.0000   -0.0000   -0.0000   -0.0017   -0.0001   -0.0000    0.0000    0.0001
        4 O1     2px        0.0000   -0.0000    0.0000    0.0000   -0.0000   -0.0000    0.0000    0.0000   -0.0000    0.0000
        5 O1     3px       -0.0000   -0.0000    0.0000    0.0000   -0.0000    0.0000    0.0000    0.0001   -0.0000   -0.0000
        6 O1     2py       -0.0000    0.0000    0.0000    0.0000    0.0000    0.0000   -0.0000    0.0000    0.0000   -0.0000
        7 O1     3py       -0.0000   -0.0000    0.0000    0.0000    0.0000   -0.0000   -0.0000    0.0000    0.0001   -0.0000
        8 O1     2pz        0.0000   -0.0000   -0.0000    0.0000    0.0000   -0.0001    0.0001   -0.0000    0.0000   -0.0001
        9 O1     3pz        0.0000   -0.0000   -0.0001    0.0000    0.0000    0.0001    0.0002    0.0000    0.0000   -0.0002
       10 O1     3d2-      -0.0000   -0.0000   -0.0000    0.0000   -0.0000    0.0000    0.0000    0.0000    0.0000   -0.0000
       11 O1     3d1-      -0.0000    0.0000   -0.0000   -0.0000   -0.0000    0.0000    0.0000   -0.0000   -0.0000    0.0000
       12 O1     3d0       -0.0000    0.0000    0.0000   -0.0000   -0.0000   -0.0004   -0.0000    0.0000   -0.0000    0.0000
       13 O1     3d1+       0.0000   -0.0000   -0.0000   -0.0000    0.0000   -0.0000    0.0000   -0.0000    0.0000   -0.0000
       14 O1     3d2+      -0.0000   -0.0000    0.0000    0.0000   -0.0000    0.0000   -0.0000   -0.0000   -0.0000    0.0000
       15 FE2    1s         1.0000   -0.0000   -0.0000    0.0000    0.0000    0.0000    0.0000    0.0000   -0.0000   -0.0000
       16 FE2    2s         0.0000    1.0000   -0.0000    0.0000    0.0000    0.0000    0.0011   -0.0000    0.0000   -0.0000
       17 FE2    3s        -0.0000   -0.0011    0.0000   -0.0000   -0.0000    0.0000    1.0000    0.0000   -0.0000   -0.0001
       18 FE2    4s         0.0000    0.0002   -0.0000    0.0000    0.0000    0.0000   -0.0028    0.0000    0.0000   -0.0000
       19 FE2    5s        -0.0000   -0.0002   -0.0000    0.0000    0.0000    0.0000    0.0033    0.0000    0.0000   -0.0000
       20 FE2    2px        0.0000   -0.0000    0.0000    0.9982   -0.0602    0.0000   -0.0000    0.0032   -0.0001    0.0000
       21 FE2    3px       -0.0000    0.0000   -0.0000   -0.0032    0.0002   -0.0000   -0.0000    0.9992   -0.0383    0.0000
       22 FE2    4px        0.0000    0.0000    0.0000    0.0004   -0.0000   -0.0000    0.0000   -0.0114    0.0004   -0.0000
       23 FE2    5px       -0.0000    0.0000   -0.0000   -0.0011    0.0001    0.0000   -0.0000    0.0055   -0.0002    0.0000
       24 FE2    2py       -0.0000    0.0000    0.0000    0.0602    0.9982   -0.0000    0.0000    0.0001    0.0032   -0.0000
       25 FE2    3py        0.0000   -0.0000   -0.0000   -0.0002   -0.0032    0.0000    0.0000    0.0383    0.9992   -0.0000
       26 FE2    4py       -0.0000    0.0000    0.0000    0.0000    0.0004    0.0000   -0.0000   -0.0004   -0.0114    0.0000
       27 FE2    5py        0.0000   -0.0000   -0.0000   -0.0001   -0.0011   -0.0000    0.0000    0.0002    0.0055   -0.0000
       28 FE2    2pz        0.0000    0.0000    1.0000   -0.0000   -0.0000    0.0000   -0.0000   -0.0000    0.0000    0.0032
       29 FE2    3pz       -0.0000    0.0000   -0.0032    0.0000    0.0000    0.0000    0.0001   -0.0000    0.0000    0.9999
       30 FE2    4pz        0.0000   -0.0000    0.0004   -0.0000   -0.0000    0.0000    0.0000    0.0000   -0.0000   -0.0115
       31 FE2    5pz        0.0000   -0.0000   -0.0011    0.0000    0.0000    0.0000    0.0000   -0.0000    0.0000    0.0055
       32 FE2    3d2-      -0.0000    0.0000    0.0000    0.0000   -0.0000   -0.0000    0.0000   -0.0000    0.0000   -0.0000
       33 FE2    4d2-      -0.0000    0.0000   -0.0000    0.0000    0.0000    0.0000   -0.0000   -0.0000   -0.0000    0.0000
       34 FE2    3d1-       0.0000    0.0000    0.0000    0.0000    0.0000    0.0000   -0.0000    0.0000    0.0000   -0.0000
       35 FE2    4d1-      -0.0000   -0.0000   -0.0000   -0.0000   -0.0000   -0.0000   -0.0000   -0.0000   -0.0000    0.0000
       36 FE2    3d0        0.0000   -0.0000   -0.0000    0.0000    0.0000    0.0000   -0.0000    0.0000    0.0000    0.0000
       37 FE2    4d0        0.0000   -0.0000   -0.0000    0.0000    0.0000    0.0000    0.0000   -0.0000   -0.0000   -0.0000
       38 FE2    3d1+       0.0000    0.0000    0.0000    0.0000   -0.0000    0.0000    0.0000    0.0000   -0.0000    0.0000
       39 FE2    4d1+       0.0000   -0.0000   -0.0000   -0.0000    0.0000   -0.0000   -0.0000   -0.0000    0.0000   -0.0000
       40 FE2    3d2+      -0.0000    0.0000   -0.0000   -0.0000   -0.0000   -0.0000    0.0000   -0.0000   -0.0000   -0.0000
       41 FE2    4d2+       0.0000   -0.0000    0.0000    0.0000    0.0000    0.0000   -0.0000    0.0000   -0.0000    0.0000
       42 FE2    4f3-       0.0000    0.0000   -0.0000   -0.0000   -0.0000    0.0000   -0.0000   -0.0000    0.0000   -0.0000
       43 FE2    4f2-      -0.0000    0.0000    0.0000    0.0000    0.0000    0.0000   -0.0000   -0.0000    0.0000   -0.0000
       44 FE2    4f1-      -0.0000    0.0000   -0.0000   -0.0000   -0.0000    0.0000   -0.0000   -0.0000   -0.0000    0.0000
       45 FE2    4f0        0.0000   -0.0000   -0.0000    0.0000    0.0000    0.0000   -0.0000    0.0000   -0.0000   -0.0000
       46 FE2    4f1+      -0.0000    0.0000   -0.0000   -0.0000    0.0000   -0.0000    0.0000   -0.0000    0.0000    0.0000
       47 FE2    4f2+      -0.0000    0.0000    0.0000   -0.0000   -0.0000   -0.0000   -0.0000    0.0000   -0.0000    0.0000
       48 FE2    4f3+       0.0000   -0.0000    0.0000    0.0000   -0.0000   -0.0000    0.0000    0.0000   -0.0000   -0.0000
 
          Orbital           11        12        13        14        15        16        17        18        19        20    
          Energy           -1.6167   -0.9071   -0.9071   -0.8087   -0.5741   -0.5722   -0.5722   -0.5722   -0.5722   -0.5721
          Occ. No.          1.0000    1.0000    1.0000    1.0000    0.0000    0.0000    0.0000    0.0000    0.0000    0.0000
 
        1 O1     1s        -0.0020   -0.0000    0.0000    0.0000    0.0001    0.0000    0.0000   -0.0000   -0.0000   -0.0001
        2 O1     2s         0.9993    0.0000   -0.0000    0.0115    0.0005    0.0000   -0.0000   -0.0000   -0.0000   -0.0011
        3 O1     3s        -0.0284   -0.0000    0.0000   -0.0089    0.0011   -0.0000    0.0000   -0.0000   -0.0000   -0.0005
        4 O1     2px       -0.0000    0.0732    0.9962    0.0000    0.0000   -0.0000    0.0000   -0.0000   -0.0005   -0.0000
        5 O1     3px        0.0000   -0.0035   -0.0471   -0.0000   -0.0000   -0.0000    0.0000   -0.0000   -0.0005    0.0000
        6 O1     2py        0.0000    0.9962   -0.0732   -0.0000   -0.0000   -0.0000    0.0000   -0.0005    0.0000    0.0000
        7 O1     3py       -0.0000   -0.0471    0.0035    0.0000    0.0000   -0.0000    0.0000   -0.0005    0.0000   -0.0000
        8 O1     2pz       -0.0119    0.0000   -0.0000    0.9998    0.0057    0.0000    0.0000    0.0000    0.0000    0.0046
        9 O1     3pz       -0.0026   -0.0000    0.0000   -0.0092   -0.0017    0.0000    0.0000    0.0000    0.0000    0.0018
       10 O1     3d2-       0.0000   -0.0000    0.0000   -0.0000   -0.0000   -0.0000    0.0000    0.0000    0.0000   -0.0000
       11 O1     3d1-       0.0000   -0.0042    0.0003    0.0000   -0.0000    0.0000    0.0000    0.0000   -0.0000   -0.0000
       12 O1     3d0       -0.0211   -0.0000    0.0000   -0.0056    0.0001    0.0000   -0.0000   -0.0000   -0.0000   -0.0000
       13 O1     3d1+      -0.0000   -0.0003   -0.0042   -0.0000   -0.0000    0.0000    0.0000    0.0000    0.0000    0.0000
       14 O1     3d2+       0.0000   -0.0000   -0.0000   -0.0000    0.0000    0.0000    0.0000    0.0000    0.0000    0.0000
       15 FE2    1s        -0.0000    0.0000   -0.0000    0.0000   -0.0000    0.0000    0.0000   -0.0000   -0.0000    0.0000
       16 FE2    2s        -0.0000   -0.0000    0.0000    0.0000   -0.0002   -0.0000   -0.0000   -0.0000   -0.0000   -0.0000
       17 FE2    3s        -0.0000    0.0000   -0.0000    0.0002    0.0035    0.0000    0.0000    0.0000    0.0000    0.0002
       18 FE2    4s        -0.0003   -0.0000   -0.0000   -0.0017    0.9675    0.0000    0.0000    0.0000    0.0000    0.0490
       19 FE2    5s        -0.0008   -0.0000   -0.0000    0.0014   -0.2474   -0.0000   -0.0000   -0.0000   -0.0000   -0.0123
       20 FE2    2px       -0.0000   -0.0000   -0.0000   -0.0000   -0.0000    0.0000    0.0000   -0.0000   -0.0000    0.0000
       21 FE2    3px        0.0000   -0.0000   -0.0000    0.0000    0.0000    0.0000    0.0000   -0.0000   -0.0000    0.0000
       22 FE2    4px        0.0000   -0.0000   -0.0003    0.0000    0.0000   -0.0000   -0.0000    0.0000    0.0000    0.0000
       23 FE2    5px       -0.0000   -0.0000   -0.0001   -0.0000    0.0000   -0.0000   -0.0000   -0.0000   -0.0000    0.0000
       24 FE2    2py       -0.0000   -0.0000    0.0000    0.0000    0.0000   -0.0000    0.0000   -0.0000    0.0000   -0.0000
       25 FE2    3py        0.0000   -0.0000    0.0000   -0.0000   -0.0000   -0.0000    0.0000   -0.0000    0.0000    0.0000
       26 FE2    4py        0.0000   -0.0003    0.0000   -0.0000   -0.0000    0.0000    0.0000    0.0000   -0.0000   -0.0000
       27 FE2    5py        0.0000   -0.0001    0.0000    0.0000    0.0000   -0.0000    0.0000   -0.0000    0.0000   -0.0000
       28 FE2    2pz       -0.0000   -0.0000    0.0000    0.0000    0.0000    0.0000   -0.0000    0.0000   -0.0000   -0.0000
       29 FE2    3pz       -0.0000    0.0000   -0.0000    0.0002   -0.0000    0.0000    0.0000   -0.0000   -0.0000   -0.0000
       30 FE2    4pz       -0.0004   -0.0000   -0.0000   -0.0006   -0.0010   -0.0000    0.0000   -0.0000   -0.0000   -0.0003
       31 FE2    5pz       -0.0002   -0.0000   -0.0000    0.0001   -0.0002   -0.0000    0.0000   -0.0000   -0.0000   -0.0000
       32 FE2    3d2-       0.0000    0.0000   -0.0000   -0.0000   -0.0000   -0.1723    0.9769    0.0000    0.0000   -0.0000
       33 FE2    4d2-      -0.0000    0.0000   -0.0000    0.0000   -0.0000   -0.0220    0.1246    0.0000    0.0000   -0.0000
       34 FE2    3d1-       0.0000   -0.0000    0.0000   -0.0000   -0.0000    0.0000   -0.0000    0.9916   -0.0256   -0.0000
       35 FE2    4d1-       0.0000   -0.0001    0.0000    0.0000   -0.0000    0.0000   -0.0000    0.1264   -0.0033   -0.0000
       36 FE2    3d0       -0.0000   -0.0000    0.0000   -0.0012   -0.0500    0.0000    0.0000    0.0000    0.0000    0.9907
       37 FE2    4d0       -0.0001   -0.0000   -0.0000   -0.0003   -0.0066    0.0000    0.0000    0.0000    0.0000    0.1263
       38 FE2    3d1+      -0.0000   -0.0000   -0.0000    0.0000   -0.0000    0.0000   -0.0000    0.0256    0.9916   -0.0000
       39 FE2    4d1+      -0.0000   -0.0000   -0.0001    0.0000   -0.0000    0.0000   -0.0000    0.0033    0.1264   -0.0000
       40 FE2    3d2+      -0.0000    0.0000    0.0000   -0.0000   -0.0000    0.9769    0.1723   -0.0000   -0.0000   -0.0000
       41 FE2    4d2+       0.0000    0.0000   -0.0000   -0.0000   -0.0000    0.1246    0.0220   -0.0000   -0.0000   -0.0000
       42 FE2    4f3-       0.0000   -0.0000   -0.0000   -0.0000   -0.0000    0.0000   -0.0000    0.0000    0.0000   -0.0000
       43 FE2    4f2-       0.0000    0.0000   -0.0000    0.0000   -0.0000   -0.0000    0.0000    0.0000    0.0000   -0.0000
       44 FE2    4f1-      -0.0000    0.0000   -0.0000   -0.0000   -0.0000    0.0000   -0.0000    0.0000   -0.0000   -0.0000
       45 FE2    4f0       -0.0000   -0.0000    0.0000   -0.0000   -0.0000    0.0000    0.0000    0.0000    0.0000    0.0000
       46 FE2    4f1+       0.0000    0.0000    0.0000   -0.0000    0.0000    0.0000   -0.0000    0.0000    0.0000   -0.0000
       47 FE2    4f2+       0.0000    0.0000   -0.0000    0.0000    0.0000    0.0000    0.0000   -0.0000    0.0000   -0.0000
       48 FE2    4f3+      -0.0000    0.0000   -0.0000   -0.0000    0.0000   -0.0000   -0.0000    0.0000   -0.0000   -0.0000
 
          Orbital           21        22        23        24    
          Energy           -0.3923   -0.3923   -0.3918   -0.2268
          Occ. No.          0.0000    0.0000    0.0000    0.0000
 
        1 O1     1s         0.0000    0.0000   -0.0009   -0.0025
        2 O1     2s         0.0000    0.0000   -0.0113   -0.0303
        3 O1     3s         0.0000    0.0000   -0.0029   -0.0033
        4 O1     2px        0.0023    0.0001    0.0000    0.0000
        5 O1     3px        0.0009    0.0000    0.0000    0.0000
        6 O1     2py        0.0001   -0.0023   -0.0000   -0.0000
        7 O1     3py        0.0000   -0.0009    0.0000   -0.0000
        8 O1     2pz       -0.0000   -0.0000    0.0188    0.0346
        9 O1     3pz       -0.0000   -0.0000    0.0027    0.0027
       10 O1     3d2-       0.0000    0.0000   -0.0000   -0.0000
       11 O1     3d1-       0.0000   -0.0001   -0.0000   -0.0000
       12 O1     3d0       -0.0000   -0.0000    0.0003    0.0008
       13 O1     3d1+       0.0001    0.0000    0.0000    0.0000
       14 O1     3d2+       0.0000   -0.0000    0.0000   -0.0000
       15 FE2    1s         0.0000    0.0000    0.0000    0.0000
       16 FE2    2s        -0.0000   -0.0000    0.0000    0.0002
       17 FE2    3s         0.0000    0.0000    0.0000   -0.0024
       18 FE2    4s        -0.0000   -0.0000    0.0005    0.2481
       19 FE2    5s        -0.0000   -0.0000   -0.0024    0.9706
       20 FE2    2px        0.0003    0.0000    0.0000   -0.0000
       21 FE2    3px       -0.0110   -0.0006   -0.0000   -0.0000
       22 FE2    4px       -0.9959   -0.0548   -0.0000   -0.0000
       23 FE2    5px       -0.0720   -0.0040   -0.0000   -0.0000
       24 FE2    2py        0.0000   -0.0003   -0.0000    0.0000
       25 FE2    3py       -0.0006    0.0110    0.0000   -0.0000
       26 FE2    4py       -0.0548    0.9959    0.0000    0.0000
       27 FE2    5py       -0.0040    0.0720    0.0000    0.0000
       28 FE2    2pz        0.0000    0.0000   -0.0003   -0.0000
       29 FE2    3pz       -0.0000   -0.0000    0.0110    0.0001
       30 FE2    4pz       -0.0000   -0.0000    0.9979    0.0042
       31 FE2    5pz       -0.0000   -0.0000    0.0720   -0.0000
       32 FE2    3d2-       0.0000   -0.0000   -0.0000    0.0000
       33 FE2    4d2-       0.0000    0.0000   -0.0000    0.0000
       34 FE2    3d1-       0.0000   -0.0000    0.0000    0.0000
       35 FE2    4d1-       0.0000   -0.0000   -0.0000   -0.0000
       36 FE2    3d0        0.0000   -0.0000    0.0006    0.0004
       37 FE2    4d0       -0.0000    0.0000   -0.0003   -0.0006
       38 FE2    3d1+       0.0000    0.0000   -0.0000   -0.0000
       39 FE2    4d1+       0.0000    0.0000    0.0000    0.0000
       40 FE2    3d2+      -0.0000   -0.0000   -0.0000   -0.0000
       41 FE2    4d2+      -0.0000    0.0000   -0.0000   -0.0000
       42 FE2    4f3-       0.0000   -0.0000    0.0000   -0.0000
       43 FE2    4f2-       0.0000   -0.0000   -0.0000    0.0000
       44 FE2    4f1-       0.0000   -0.0000    0.0000   -0.0000
       45 FE2    4f0        0.0000    0.0000   -0.0000   -0.0000
       46 FE2    4f1+       0.0000    0.0000    0.0000    0.0000
       47 FE2    4f2+       0.0000    0.0000    0.0000    0.0000
       48 FE2    4f3+      -0.0000   -0.0000    0.0000    0.0000
--
 
 
++    Molecular charges:
      ------------------
 
      Mulliken charges per centre and basis function type
      ---------------------------------------------------
 
                            O1                      FE2   
                     alpha        beta       alpha        beta
      1s           1.0000      1.0000      1.0000      1.0000
      2s           0.9986      0.9988      1.0000      1.0000
      2px          0.0000      0.9977      1.0000      1.0000
      2pz          0.9970      0.9998      1.0000      1.0000
      2py          0.0000      0.9977      1.0000      1.0000
      3s           0.0006      0.0009      1.0000      1.0000
      3px          0.0000      0.0022      0.9993      0.9998
      3pz          0.0027      0.0001      0.9993      0.9998
      3py          0.0000      0.0022      0.9993      0.9998
      4s           0.0000      0.0000      0.8623      0.0000
      3d2+        -0.0000      0.0000      0.9814      0.0000
      3d1+        -0.0000      0.0000      0.9814     -0.0000
      3d0          0.0009      0.0005      0.9814      0.0000
      3d1-        -0.0000      0.0000      0.9814     -0.0000
      3d2-        -0.0000      0.0000      0.9814      0.0000
      4px          0.0000      0.0000      0.0004      0.0001
      4pz          0.0000      0.0000      0.0006      0.0001
      4py          0.0000      0.0000      0.0004      0.0001
      5s           0.0000      0.0000      0.1375     -0.0001
      4d2+         0.0000      0.0000      0.0186      0.0000
      4d1+         0.0000      0.0000      0.0186     -0.0000
      4d0          0.0000      0.0000      0.0186      0.0000
      4d1-         0.0000      0.0000      0.0186     -0.0000
      4d2-         0.0000      0.0000      0.0186      0.0000
      5px          0.0000      0.0000      0.0003      0.0000
      5pz          0.0000      0.0000      0.0003      0.0000
      5py          0.0000      0.0000      0.0003      0.0000
      4f3+         0.0000      0.0000      0.0000      0.0000
      4f2+         0.0000      0.0000      0.0000      0.0000
      4f1+         0.0000      0.0000      0.0000      0.0000
      4f0          0.0000      0.0000      0.0000      0.0000
      4f1-         0.0000      0.0000      0.0000      0.0000
      4f2-         0.0000      0.0000      0.0000      0.0000
      4f3-         0.0000      0.0000      0.0000      0.0000
      Total        2.9999      5.0000     15.0001      9.0000
      Total              7.9999                 24.0001
 
      Charge            0.0001                  1.9999
 
      Total electronic charge=   32.000000
 
      Total            charge=    2.000000
--
 
 
  Input file to MOLDEN was generated!
 
 
++    Static properties:
      ------------------
 
 
      LoProp Charges per center
 

                   O1       FE2   
      Nuclear      8.0000  26.0000
      Electronic  -8.0001 -23.9999
 
      Total       -0.0001   2.0001
--
 
 
++    Natural Bond Order analysis
      ---------------------------
      Based on LoProp computed density
      -------------------------------------------------------------------------------------
      Atom A       Atom B       Bond Order
      -------------------------------------------------------------------------------------
      NBO located     20.000 core electrons.
      NBO located      3.995 lone pair electrons.
      NBO located      1.000 non-bonded electrons on atom O1        
      NBO located      1.000 non-bonded electrons on atom O1        
      NBO located      1.000 non-bonded electrons on atom FE2       
      NBO located      1.000 non-bonded electrons on atom FE2       
      NBO located      1.000 non-bonded electrons on atom FE2       
      NBO located      1.000 non-bonded electrons on atom FE2       
      NBO located      1.000 non-bonded electrons on atom FE2       
      NBO located      1.000 non-bonded electrons on atom FE2       
      The remaining    0.005 electrons are to be considered as diffuse
--
 
 
++    Molecular orbitals:
      -------------------
 
      Title: Natural orbitals

      Molecular orbitals for symmetry species 1: a  
 
          Orbital            1         2         3         4         5         6         7         8         9        10    
          Energy         -264.6133  -33.0547  -27.6727  -27.7124  -27.7116  -20.8649   -5.5803   -4.4625   -4.4614   -4.4621
          Occ. No.          2.0000    2.0000    2.0000    2.0000    2.0000    2.0000    2.0000    1.9999    1.9999    1.9999
 
        1 O1     1s         0.0000    0.0041    0.0749    0.0000    0.0000    0.9959   -0.0380   -0.0016    0.0000   -0.0000
        2 O1     2s        -0.0000   -0.0001   -0.0024   -0.0000   -0.0000   -0.0335    0.0007   -0.0014    0.0000    0.0000
        3 O1     3s         0.0000    0.0000   -0.0000   -0.0000   -0.0000   -0.0005   -0.0002    0.0001   -0.0000    0.0000
        4 O1     2px        0.0000   -0.0000    0.0000   -0.0000    0.0000   -0.0000    0.0000   -0.0000   -0.0000   -0.0000
        5 O1     3px       -0.0000   -0.0000   -0.0000   -0.0000    0.0000    0.0000    0.0000   -0.0000   -0.0000   -0.0000
        6 O1     2py       -0.0000    0.0000   -0.0000   -0.0000   -0.0000    0.0000   -0.0000    0.0000    0.0000   -0.0000
        7 O1     3py       -0.0000   -0.0000    0.0000   -0.0000   -0.0000    0.0000   -0.0000   -0.0000    0.0000   -0.0000
        8 O1     2pz        0.0000   -0.0000    0.0007   -0.0000   -0.0000   -0.0007    0.0030   -0.0162    0.0000   -0.0000
        9 O1     3pz        0.0000   -0.0000    0.0000    0.0000    0.0000    0.0002    0.0004   -0.0004    0.0000   -0.0000
       10 O1     3d2-      -0.0000   -0.0000    0.0000    0.0000   -0.0000    0.0000    0.0000   -0.0000    0.0000    0.0000
       11 O1     3d1-      -0.0000   -0.0000   -0.0000    0.0000    0.0000   -0.0000    0.0000   -0.0000   -0.0000    0.0000
       12 O1     3d0       -0.0000    0.0000    0.0000    0.0000    0.0000    0.0002   -0.0000    0.0001   -0.0000    0.0000
       13 O1     3d1+       0.0000   -0.0000    0.0000    0.0000   -0.0000    0.0000   -0.0000    0.0000    0.0000    0.0000
       14 O1     3d2+      -0.0000   -0.0000   -0.0000    0.0000   -0.0000   -0.0000   -0.0000    0.0000   -0.0000   -0.0000
       15 FE2    1s         1.0000   -0.0000    0.0000    0.0000    0.0000    0.0000    0.0000    0.0000    0.0000    0.0000
       16 FE2    2s         0.0000    0.9939    0.0012   -0.0000   -0.0000    0.0001    0.1105    0.0003   -0.0000    0.0000
       17 FE2    3s        -0.0000   -0.1105    0.0015    0.0000    0.0000    0.0382    0.9931    0.0016   -0.0000    0.0000
       18 FE2    4s         0.0000    0.0005   -0.0000   -0.0000   -0.0000   -0.0001   -0.0022    0.0000    0.0000    0.0000
       19 FE2    5s        -0.0000   -0.0006    0.0000    0.0000    0.0000    0.0002    0.0045   -0.0000    0.0000    0.0000
       20 FE2    2px       -0.0000    0.0000    0.0000    0.9843   -0.0208   -0.0000    0.0000    0.0000    0.1720    0.0325
       21 FE2    3px        0.0000   -0.0000   -0.0000   -0.1750    0.0037    0.0000   -0.0000    0.0000    0.9672    0.1829
       22 FE2    4px       -0.0000    0.0000    0.0000    0.0026   -0.0001   -0.0000    0.0000   -0.0000   -0.0148   -0.0028
       23 FE2    5px        0.0000   -0.0000   -0.0000   -0.0019    0.0000    0.0000   -0.0000    0.0000    0.0115    0.0022
       24 FE2    2py       -0.0000    0.0000    0.0000    0.0209    0.9843   -0.0000    0.0000   -0.0000   -0.0325    0.1721
       25 FE2    3py        0.0000   -0.0000   -0.0000   -0.0037   -0.1751    0.0000   -0.0000   -0.0000   -0.1829    0.9672
       26 FE2    4py       -0.0000    0.0000    0.0000    0.0001    0.0026   -0.0000    0.0000    0.0000    0.0028   -0.0148
       27 FE2    5py        0.0000   -0.0000   -0.0000   -0.0000   -0.0019    0.0000   -0.0000   -0.0000   -0.0022    0.0115
       28 FE2    2pz       -0.0000   -0.0013    0.9818   -0.0000   -0.0000   -0.0735    0.0009    0.1753   -0.0000    0.0000
       29 FE2    3pz       -0.0000    0.0001   -0.1746    0.0000    0.0000    0.0145   -0.0018    0.9842   -0.0000    0.0000
       30 FE2    4pz        0.0000   -0.0000    0.0026   -0.0000   -0.0000   -0.0002    0.0000   -0.0150    0.0000   -0.0000
       31 FE2    5pz        0.0000   -0.0000   -0.0019    0.0000    0.0000    0.0002    0.0000    0.0117   -0.0000    0.0000
       32 FE2    3d2-      -0.0000   -0.0000    0.0000    0.0000   -0.0000   -0.0000    0.0000   -0.0000   -0.0000    0.0000
       33 FE2    4d2-      -0.0000    0.0000   -0.0000    0.0000    0.0000    0.0000    0.0000    0.0000   -0.0000   -0.0000
       34 FE2    3d1-       0.0000    0.0000   -0.0000   -0.0000   -0.0000    0.0000   -0.0000   -0.0000   -0.0000    0.0000
       35 FE2    4d1-      -0.0000   -0.0000    0.0000    0.0000    0.0000   -0.0000   -0.0000    0.0000    0.0000   -0.0000
       36 FE2    3d0        0.0000   -0.0000   -0.0000    0.0000    0.0000    0.0000   -0.0000    0.0001   -0.0000    0.0000
       37 FE2    4d0        0.0000   -0.0000    0.0000    0.0000    0.0000    0.0000    0.0000   -0.0000   -0.0000   -0.0000
       38 FE2    3d1+       0.0000    0.0000   -0.0000   -0.0000    0.0000    0.0000    0.0000    0.0000    0.0000    0.0000
       39 FE2    4d1+       0.0000   -0.0000    0.0000    0.0000   -0.0000   -0.0000   -0.0000   -0.0000   -0.0000   -0.0000
       40 FE2    3d2+      -0.0000    0.0000    0.0000   -0.0000    0.0000    0.0000    0.0000   -0.0000   -0.0000   -0.0000
       41 FE2    4d2+       0.0000   -0.0000    0.0000    0.0000    0.0000   -0.0000   -0.0000    0.0000    0.0000   -0.0000
       42 FE2    4f3-       0.0000    0.0000   -0.0000    0.0000   -0.0000    0.0000   -0.0000   -0.0000   -0.0000   -0.0000
       43 FE2    4f2-      -0.0000    0.0000    0.0000    0.0000   -0.0000   -0.0000   -0.0000   -0.0000   -0.0000    0.0000
       44 FE2    4f1-      -0.0000    0.0000    0.0000    0.0000    0.0000   -0.0000   -0.0000    0.0000    0.0000   -0.0000
       45 FE2    4f0        0.0000   -0.0000    0.0000   -0.0000   -0.0000   -0.0000   -0.0000   -0.0000    0.0000    0.0000
       46 FE2    4f1+      -0.0000    0.0000    0.0000    0.0000   -0.0000   -0.0000   -0.0000    0.0000   -0.0000   -0.0000
       47 FE2    4f2+      -0.0000    0.0000   -0.0000   -0.0000    0.0000   -0.0000    0.0000    0.0000    0.0000   -0.0000
       48 FE2    4f3+       0.0000   -0.0000   -0.0000    0.0000   -0.0000   -0.0000    0.0000   -0.0000    0.0000    0.0000
 
          Orbital           11        12        13        14        15        16        17        18        19        20    
          Energy           -0.7719   -1.4530   -0.7731   -0.7731   -1.0842   -1.0842   -1.0842   -0.7596   -0.7730   -0.7730
          Occ. No.          1.9982    1.9974    1.0000    1.0000    1.0000    1.0000    1.0000    1.0000    1.0000    1.0000
 
        1 O1     1s        -0.0052   -0.0332   -0.0000   -0.0000   -0.0000    0.0000    0.0000   -0.0004   -0.0000    0.0000
        2 O1     2s        -0.1346   -0.9903   -0.0000   -0.0000   -0.0003    0.0000    0.0000   -0.0045   -0.0000    0.0000
        3 O1     3s         0.0095    0.0020   -0.0000   -0.0000   -0.0004    0.0000    0.0000   -0.0044   -0.0000    0.0000
        4 O1     2px       -0.0000    0.0000    0.0215    0.7061    0.0000   -0.0000    0.0000    0.0000    0.5383    0.4571
        5 O1     3px       -0.0000    0.0000   -0.0010   -0.0332    0.0000    0.0000   -0.0000   -0.0000   -0.0256   -0.0218
        6 O1     2py        0.0000   -0.0000    0.7061   -0.0215   -0.0000    0.0000   -0.0000   -0.0000   -0.4571    0.5383
        7 O1     3py        0.0000    0.0000   -0.0332    0.0010   -0.0000   -0.0000    0.0000   -0.0000    0.0218   -0.0256
        8 O1     2pz       -0.9904    0.1346    0.0000   -0.0000   -0.0010    0.0000    0.0000   -0.0013   -0.0000    0.0000
        9 O1     3pz       -0.0199    0.0064    0.0000    0.0000    0.0008   -0.0000   -0.0000    0.0062    0.0000   -0.0000
       10 O1     3d2-       0.0000   -0.0000   -0.0000    0.0000    0.0000    0.0000   -0.0000    0.0000    0.0000   -0.0000
       11 O1     3d1-      -0.0000    0.0000   -0.0030    0.0001    0.0000   -0.0000    0.0000    0.0000    0.0019   -0.0023
       12 O1     3d0        0.0046   -0.0047   -0.0000    0.0000   -0.0001    0.0000    0.0000   -0.0002   -0.0000    0.0000
       13 O1     3d1+       0.0000   -0.0000   -0.0001   -0.0030   -0.0000    0.0000   -0.0000    0.0000   -0.0023   -0.0019
       14 O1     3d2+       0.0000   -0.0000   -0.0000   -0.0000   -0.0000   -0.0000   -0.0000   -0.0000   -0.0000   -0.0000
       15 FE2    1s        -0.0000    0.0000    0.0000    0.0000    0.0000   -0.0000   -0.0000    0.0000   -0.0000   -0.0000
       16 FE2    2s         0.0002   -0.0000    0.0000    0.0000    0.0000   -0.0000   -0.0000    0.0003   -0.0000   -0.0000
       17 FE2    3s         0.0024   -0.0008   -0.0000   -0.0000   -0.0000    0.0000    0.0000   -0.0038    0.0000    0.0000
       18 FE2    4s         0.0012    0.0001   -0.0000   -0.0000    0.0001    0.0000    0.0000   -0.9283    0.0000    0.0000
       19 FE2    5s        -0.0006    0.0006    0.0000    0.0000    0.0002   -0.0000   -0.0000    0.3714   -0.0000   -0.0000
       20 FE2    2px       -0.0000   -0.0000   -0.0000   -0.0000   -0.0000   -0.0000    0.0000    0.0000    0.0000    0.0000
       21 FE2    3px        0.0000    0.0000   -0.0000   -0.0000   -0.0000   -0.0000    0.0000    0.0000    0.0000    0.0000
       22 FE2    4px       -0.0000   -0.0000   -0.0000   -0.0003   -0.0000    0.0000    0.0000    0.0000   -0.0001   -0.0001
       23 FE2    5px        0.0000    0.0000   -0.0000   -0.0001   -0.0000    0.0000    0.0000    0.0000   -0.0001   -0.0000
       24 FE2    2py       -0.0000    0.0000   -0.0000    0.0000    0.0000    0.0000   -0.0000    0.0000   -0.0000    0.0000
       25 FE2    3py       -0.0000   -0.0000   -0.0000    0.0000    0.0000   -0.0000   -0.0000    0.0000   -0.0000    0.0000
       26 FE2    4py        0.0000   -0.0000   -0.0003    0.0000    0.0000   -0.0000    0.0000    0.0000    0.0001   -0.0001
       27 FE2    5py       -0.0000    0.0000   -0.0001    0.0000    0.0000   -0.0000    0.0000    0.0000    0.0000   -0.0001
       28 FE2    2pz       -0.0021    0.0001    0.0000   -0.0000    0.0000    0.0000    0.0000   -0.0000    0.0000    0.0000
       29 FE2    3pz       -0.0163    0.0008    0.0000   -0.0000    0.0000   -0.0000   -0.0000    0.0001    0.0000   -0.0000
       30 FE2    4pz        0.0048   -0.0003    0.0000    0.0000    0.0002   -0.0000   -0.0000    0.0039    0.0000   -0.0000
       31 FE2    5pz       -0.0000    0.0001    0.0000    0.0000    0.0001   -0.0000   -0.0000    0.0003    0.0000   -0.0000
       32 FE2    3d2-       0.0000   -0.0000    0.0000   -0.0000   -0.0000    0.0323   -0.9901   -0.0000    0.0000    0.0000
       33 FE2    4d2-      -0.0000    0.0000   -0.0000    0.0000    0.0000   -0.0044    0.1363    0.0000   -0.0000   -0.0000
       34 FE2    3d1-       0.0000   -0.0000    0.7001   -0.0213   -0.0000    0.0000    0.0000   -0.0000    0.4534   -0.5340
       35 FE2    4d1-      -0.0000   -0.0000   -0.0965    0.0029    0.0000   -0.0000   -0.0000    0.0000   -0.0624    0.0735
       36 FE2    3d0        0.0012   -0.0001   -0.0000    0.0000   -0.9906   -0.0000    0.0000    0.0001   -0.0000    0.0000
       37 FE2    4d0        0.0006   -0.0000    0.0000   -0.0000    0.1365    0.0000   -0.0000    0.0005    0.0000   -0.0000
       38 FE2    3d1+      -0.0000    0.0000    0.0213    0.7001    0.0000    0.0000   -0.0000   -0.0000   -0.5340   -0.4534
       39 FE2    4d1+      -0.0000    0.0000   -0.0029   -0.0965   -0.0000   -0.0000    0.0000    0.0000    0.0735    0.0624
       40 FE2    3d2+       0.0000   -0.0000    0.0000    0.0000    0.0000   -0.9901   -0.0323   -0.0000   -0.0000   -0.0000
       41 FE2    4d2+      -0.0000   -0.0000   -0.0000   -0.0000   -0.0000    0.1363    0.0044    0.0000    0.0000    0.0000
       42 FE2    4f3-       0.0000   -0.0000    0.0000   -0.0000    0.0000   -0.0000    0.0000   -0.0000    0.0000   -0.0000
       43 FE2    4f2-      -0.0000   -0.0000    0.0000   -0.0000   -0.0000    0.0000   -0.0000   -0.0000    0.0000    0.0000
       44 FE2    4f1-       0.0000    0.0000    0.0000   -0.0000   -0.0000    0.0000    0.0000   -0.0000    0.0000   -0.0000
       45 FE2    4f0        0.0000   -0.0000   -0.0000    0.0000   -0.0000   -0.0000   -0.0000    0.0000   -0.0000   -0.0000
       46 FE2    4f1+       0.0000   -0.0000    0.0000    0.0000    0.0000    0.0000   -0.0000   -0.0000   -0.0000   -0.0000
       47 FE2    4f2+      -0.0000   -0.0000    0.0000    0.0000    0.0000   -0.0000   -0.0000   -0.0000   -0.0000   -0.0000
       48 FE2    4f3+       0.0000    0.0000    0.0000   -0.0000    0.0000    0.0000    0.0000   -0.0000    0.0000   -0.0000
 
          Orbital           21        22        23        24        25        26        27        28        29        30    
          Energy            1.3015    0.3741    0.9459    0.9459    0.9612   -0.2207    0.9859   -0.0419   -0.0419    0.3461
          Occ. No.          0.0026    0.0018    0.0001    0.0001    0.0001    0.0000    0.0000    0.0000    0.0000    0.0000
 
        1 O1     1s         0.0001    0.0001   -0.0000    0.0000   -0.0010    0.0026    0.0014    0.0000    0.0000    0.0010
        2 O1     2s        -0.0016    0.0054   -0.0000    0.0000   -0.0116    0.0324    0.0148    0.0000   -0.0000    0.0138
        3 O1     3s         0.7010    0.0906    0.0000    0.0000   -0.0208    0.0774    0.6280    0.0000    0.0000   -0.3265
        4 O1     2px       -0.0000   -0.0000   -0.0024   -0.0001   -0.0000   -0.0000   -0.0000   -0.0052    0.0003   -0.0000
        5 O1     3px       -0.0000    0.0000   -0.0090   -0.0004   -0.0000   -0.0000    0.0000   -0.0335    0.0017   -0.0000
        6 O1     2py       -0.0000    0.0000    0.0001   -0.0024    0.0000    0.0000    0.0000   -0.0003   -0.0052   -0.0000
        7 O1     3py        0.0000   -0.0000    0.0004   -0.0090    0.0000    0.0000    0.0000   -0.0017   -0.0335    0.0000
        8 O1     2pz        0.0139   -0.0228    0.0000   -0.0000    0.0089   -0.0363   -0.0131    0.0000    0.0000   -0.0250
        9 O1     3pz       -0.1378    0.9662    0.0000   -0.0000   -0.0355   -0.1602   -0.1065    0.0000    0.0000   -0.2118
       10 O1     3d2-      -0.0000    0.0000   -0.0000   -0.0000    0.0000   -0.0000   -0.0000    0.0000    0.0000   -0.0000
       11 O1     3d1-      -0.0000   -0.0000   -0.0000    0.0007    0.0000    0.0000    0.0000    0.0002    0.0043   -0.0000
       12 O1     3d0        0.6972    0.1170   -0.0000   -0.0000   -0.0067    0.0100   -0.5986   -0.0000   -0.0000    0.3735
       13 O1     3d1+       0.0000    0.0000    0.0007    0.0000   -0.0000    0.0000   -0.0000    0.0043   -0.0002    0.0000
       14 O1     3d2+      -0.0000    0.0000    0.0000    0.0000    0.0000   -0.0000   -0.0000   -0.0000    0.0000   -0.0000
       15 FE2    1s        -0.0000    0.0001    0.0000   -0.0000   -0.0000   -0.0000   -0.0000   -0.0000    0.0000   -0.0000
       16 FE2    2s        -0.0001    0.0006   -0.0000    0.0000   -0.0000   -0.0001   -0.0001    0.0000    0.0000   -0.0001
       17 FE2    3s        -0.0006    0.0032    0.0000   -0.0000   -0.0001    0.0028   -0.0004    0.0000    0.0000   -0.0006
       18 FE2    4s         0.0008    0.0154    0.0000    0.0000   -0.0000   -0.3789   -0.0042   -0.0000   -0.0000   -0.0139
       19 FE2    5s         0.0086   -0.0245    0.0000    0.0000    0.0079   -0.9403   -0.0030   -0.0000   -0.0000   -0.0137
       20 FE2    2px       -0.0000    0.0000   -0.0002   -0.0000    0.0000    0.0000   -0.0000   -0.0000    0.0000    0.0000
       21 FE2    3px        0.0000   -0.0000   -0.0180   -0.0008    0.0000   -0.0000    0.0000    0.0070   -0.0004    0.0000
       22 FE2    4px       -0.0000    0.0000   -0.5156   -0.0236    0.0000   -0.0000   -0.0000    0.8554   -0.0434    0.0000
       23 FE2    5px       -0.0000   -0.0000    0.8555    0.0391   -0.0000   -0.0000   -0.0000    0.5161   -0.0262    0.0000
       24 FE2    2py       -0.0000    0.0000    0.0000   -0.0002   -0.0000   -0.0000   -0.0000   -0.0000   -0.0000   -0.0000
       25 FE2    3py        0.0000   -0.0000    0.0008   -0.0180   -0.0000   -0.0000    0.0000    0.0004    0.0070    0.0000
       26 FE2    4py        0.0000   -0.0000    0.0236   -0.5156   -0.0000   -0.0000    0.0000    0.0434    0.8554    0.0000
       27 FE2    5py       -0.0000    0.0000   -0.0391    0.8555    0.0000   -0.0000    0.0000    0.0262    0.5161    0.0000
       28 FE2    2pz       -0.0000    0.0001   -0.0000    0.0000   -0.0002   -0.0000    0.0000    0.0000   -0.0000    0.0000
       29 FE2    3pz       -0.0001    0.0002   -0.0000    0.0000   -0.0180   -0.0004   -0.0039    0.0000    0.0000   -0.0064
       30 FE2    4pz        0.0183   -0.1315   -0.0000    0.0000   -0.5055   -0.0023   -0.4457    0.0000    0.0000   -0.7328
       31 FE2    5pz        0.0026   -0.0022    0.0000   -0.0000    0.8610   -0.0016   -0.2713    0.0000    0.0000   -0.4418
       32 FE2    3d2-      -0.0000    0.0000    0.0000   -0.0000    0.0000   -0.0000    0.0000   -0.0000    0.0000   -0.0000
       33 FE2    4d2-      -0.0000    0.0000    0.0000   -0.0000    0.0000   -0.0000    0.0000   -0.0000    0.0000   -0.0000
       34 FE2    3d1-       0.0000    0.0000    0.0000   -0.0001   -0.0000   -0.0000   -0.0000    0.0000    0.0007    0.0000
       35 FE2    4d1-       0.0000   -0.0000    0.0000   -0.0004   -0.0000   -0.0000   -0.0000    0.0002    0.0044    0.0000
       36 FE2    3d0        0.0002    0.0008   -0.0000    0.0000    0.0001   -0.0014   -0.0081    0.0000    0.0000    0.0021
       37 FE2    4d0        0.0032   -0.0092    0.0000    0.0000    0.0018   -0.0077   -0.0564    0.0000    0.0000    0.0192
       38 FE2    3d1+      -0.0000   -0.0000   -0.0001   -0.0000    0.0000   -0.0000    0.0000    0.0007   -0.0000    0.0000
       39 FE2    4d1+      -0.0000    0.0000   -0.0004   -0.0000    0.0000   -0.0000    0.0000    0.0044   -0.0002    0.0000
       40 FE2    3d2+      -0.0000    0.0000    0.0000    0.0000   -0.0000   -0.0000   -0.0000    0.0000    0.0000   -0.0000
       41 FE2    4d2+      -0.0000    0.0000    0.0000    0.0000   -0.0000   -0.0000   -0.0000    0.0000    0.0000   -0.0000
       42 FE2    4f3-      -0.0000    0.0000   -0.0000   -0.0000   -0.0000   -0.0000   -0.0000    0.0000    0.0000    0.0000
       43 FE2    4f2-       0.0000    0.0000    0.0000   -0.0000   -0.0000    0.0000    0.0000    0.0000    0.0000    0.0000
       44 FE2    4f1-       0.0000   -0.0000    0.0000   -0.0001    0.0000   -0.0000   -0.0000    0.0000    0.0004   -0.0000
       45 FE2    4f0        0.0001   -0.0003   -0.0000    0.0000    0.0000   -0.0003   -0.0021    0.0000   -0.0000    0.0002
       46 FE2    4f1+      -0.0000    0.0000   -0.0001   -0.0000   -0.0000   -0.0000   -0.0000    0.0004   -0.0000   -0.0000
       47 FE2    4f2+      -0.0000    0.0000   -0.0000    0.0000   -0.0000   -0.0000   -0.0000   -0.0000    0.0000   -0.0000
       48 FE2    4f3+       0.0000    0.0000    0.0000    0.0000    0.0000    0.0000   -0.0000    0.0000    0.0000    0.0000
 
          Orbital           31        32        33        34        35        36        37        38        39        40    
          Energy            0.2775    0.3875    0.2686    0.3886    0.2687    0.2704    0.2719    1.9223    1.9176    2.7817
          Occ. No.          0.0000    0.0000    0.0000    0.0000    0.0000    0.0000    0.0000    0.0000    0.0000    0.0000
 
        1 O1     1s         0.0003    0.0000    0.0000    0.0000    0.0000   -0.0000    0.0000    0.0000   -0.0000   -0.0000
        2 O1     2s         0.0055    0.0000    0.0000    0.0000    0.0000   -0.0000    0.0000    0.0000   -0.0000   -0.0000
        3 O1     3s        -0.0228   -0.0000   -0.0000   -0.0000   -0.0000    0.0000   -0.0000   -0.0000    0.0000    0.0000
        4 O1     2px        0.0000    0.0010   -0.0003   -0.0471   -0.0006   -0.0003    0.0034   -0.0005    0.0032    0.0020
        5 O1     3px        0.0000    0.0220   -0.0072   -0.9979   -0.0117   -0.0037    0.0287   -0.0005    0.0122    0.0075
        6 O1     2py        0.0000   -0.0471    0.0005   -0.0010   -0.0002    0.0045    0.0001    0.0045    0.0003    0.0002
        7 O1     3py        0.0000   -0.9973    0.0098   -0.0221   -0.0032    0.0505    0.0015    0.0058    0.0011    0.0000
        8 O1     2pz       -0.0132   -0.0000   -0.0000   -0.0000   -0.0000    0.0000   -0.0000   -0.0000    0.0000    0.0000
        9 O1     3pz       -0.0636   -0.0000   -0.0000   -0.0000   -0.0000    0.0000   -0.0000   -0.0000    0.0000    0.0000
       10 O1     3d2-      -0.0000   -0.0008    0.0008    0.0032    0.0024    0.0014   -0.0015    0.0000   -0.0814    0.1594
       11 O1     3d1-      -0.0000    0.0059   -0.0002    0.0015   -0.0019   -0.0075   -0.0080    0.9941    0.0646    0.0434
       12 O1     3d0        0.0481    0.0000    0.0000    0.0000    0.0000   -0.0000    0.0000    0.0000   -0.0000   -0.0000
       13 O1     3d1+      -0.0000    0.0017    0.0004    0.0187   -0.0010   -0.0052   -0.0237   -0.1075    0.5987    0.4018
       14 O1     3d2+      -0.0000   -0.0012   -0.0005    0.0009   -0.0034   -0.0051   -0.0122    0.0000    0.7937   -0.2905
       15 FE2    1s        -0.0000   -0.0000   -0.0000   -0.0000   -0.0000    0.0000   -0.0000   -0.0000    0.0000    0.0000
       16 FE2    2s        -0.0000   -0.0000   -0.0000   -0.0000   -0.0000    0.0000   -0.0000   -0.0000    0.0000    0.0000
       17 FE2    3s        -0.0002   -0.0000   -0.0000   -0.0000   -0.0000    0.0000   -0.0000   -0.0000    0.0000    0.0000
       18 FE2    4s        -0.0023   -0.0000   -0.0000   -0.0000   -0.0000    0.0000   -0.0000   -0.0000    0.0000    0.0000
       19 FE2    5s        -0.0014   -0.0000   -0.0000   -0.0000   -0.0000    0.0000   -0.0000   -0.0000   -0.0000   -0.0000
       20 FE2    2px       -0.0000   -0.0000    0.0000    0.0000    0.0000    0.0000   -0.0000    0.0000   -0.0000   -0.0000
       21 FE2    3px       -0.0000   -0.0000    0.0000    0.0002    0.0000   -0.0000    0.0000    0.0000   -0.0000   -0.0000
       22 FE2    4px        0.0000    0.0001   -0.0000   -0.0057   -0.0001   -0.0002    0.0038    0.0002   -0.0009   -0.0009
       23 FE2    5px        0.0000    0.0000   -0.0000   -0.0022   -0.0000   -0.0001    0.0015    0.0001   -0.0003   -0.0003
       24 FE2    2py       -0.0000    0.0000   -0.0000    0.0000    0.0000   -0.0000   -0.0000   -0.0000   -0.0000   -0.0000
       25 FE2    3py       -0.0000    0.0002   -0.0000    0.0000    0.0000    0.0000    0.0000   -0.0000   -0.0000   -0.0000
       26 FE2    4py        0.0000   -0.0056    0.0001   -0.0001   -0.0000    0.0039    0.0002   -0.0017   -0.0001   -0.0001
       27 FE2    5py        0.0000   -0.0021    0.0000   -0.0001   -0.0000    0.0015    0.0001   -0.0005   -0.0000   -0.0000
       28 FE2    2pz       -0.0000   -0.0000   -0.0000   -0.0000   -0.0000    0.0000   -0.0000   -0.0000    0.0000    0.0000
       29 FE2    3pz       -0.0001   -0.0000   -0.0000   -0.0000   -0.0000    0.0000   -0.0000   -0.0000    0.0000    0.0000
       30 FE2    4pz        0.0058    0.0000    0.0000    0.0000    0.0000   -0.0000    0.0000    0.0000   -0.0000   -0.0000
       31 FE2    5pz        0.0024    0.0000    0.0000    0.0000    0.0000   -0.0000    0.0000    0.0000   -0.0000   -0.0000
       32 FE2    3d2-       0.0000   -0.0014   -0.1349    0.0007    0.0201   -0.0001   -0.0000    0.0000    0.0000   -0.0000
       33 FE2    4d2-       0.0000   -0.0103   -0.9797    0.0051    0.1462   -0.0005   -0.0002    0.0001    0.0002   -0.0000
       34 FE2    3d1-      -0.0000   -0.0040    0.0001    0.0003   -0.0003   -0.1362   -0.0054   -0.0007   -0.0012   -0.0001
       35 FE2    4d1-      -0.0000   -0.0322    0.0004    0.0018   -0.0025   -0.9895   -0.0392   -0.0049   -0.0085   -0.0004
       36 FE2    3d0       -0.1365   -0.0000   -0.0000   -0.0000   -0.0000    0.0000   -0.0000   -0.0000    0.0000    0.0000
       37 FE2    4d0       -0.9906   -0.0000   -0.0000   -0.0000   -0.0000    0.0000   -0.0000   -0.0000    0.0000    0.0000
       38 FE2    3d1+       0.0000    0.0001    0.0000   -0.0011   -0.0000    0.0054   -0.1362   -0.0007   -0.0031   -0.0011
       39 FE2    4d1+       0.0000    0.0008    0.0001   -0.0111   -0.0003    0.0395   -0.9895   -0.0053   -0.0224   -0.0079
       40 FE2    3d2+      -0.0000   -0.0002    0.0201   -0.0017    0.1349   -0.0003   -0.0000    0.0002    0.0005   -0.0000
       41 FE2    4d2+      -0.0000   -0.0015    0.1462   -0.0126    0.9797   -0.0024   -0.0002    0.0017    0.0036   -0.0000
       42 FE2    4f3-      -0.0000   -0.0003   -0.0001   -0.0011   -0.0004    0.0010    0.0050    0.0000   -0.0000   -0.0488
       43 FE2    4f2-       0.0000    0.0008    0.0002    0.0005    0.0005   -0.0004    0.0005   -0.0000   -0.0000    0.2117
       44 FE2    4f1-      -0.0000   -0.0015    0.0020    0.0031    0.0035   -0.0001   -0.0182   -0.0002   -0.0000    0.0789
       45 FE2    4f0       -0.0025   -0.0004   -0.0001   -0.0001   -0.0000    0.0000   -0.0000    0.0000   -0.0000   -0.0000
       46 FE2    4f1+      -0.0000   -0.0021   -0.0009   -0.0005   -0.0017    0.0012   -0.0013    0.0000   -0.0001    0.7585
       47 FE2    4f2+      -0.0000   -0.0011   -0.0003   -0.0008   -0.0007    0.0006   -0.0007   -0.0000    0.0000   -0.3129
       48 FE2    4f3+      -0.0000   -0.0003   -0.0001   -0.0006   -0.0002    0.0005    0.0026   -0.0000   -0.0000    0.0113
 
          Orbital           41        42        43        44        45        46        47    
          Energy            2.9739    2.8181    2.7937    2.2249    2.9920    3.0759    2.8094
          Occ. No.          0.0000    0.0000    0.0000    0.0000    0.0000    0.0000    0.0000
 
        1 O1     1s        -0.0000   -0.0000    0.0000    0.0000    0.0000   -0.0000   -0.0000
        2 O1     2s        -0.0000   -0.0000    0.0000    0.0000    0.0000   -0.0000   -0.0000
        3 O1     3s         0.0000    0.0000   -0.0000   -0.0000   -0.0000    0.0000    0.0000
        4 O1     2px       -0.0013    0.0019   -0.0022    0.0009   -0.0012   -0.0004   -0.0002
        5 O1     3px       -0.0056    0.0069   -0.0096    0.0008   -0.0043    0.0014    0.0007
        6 O1     2py       -0.0001    0.0002   -0.0004    0.0002   -0.0001   -0.0003   -0.0001
        7 O1     3py       -0.0004    0.0003   -0.0035    0.0015   -0.0002   -0.0028   -0.0006
        8 O1     2pz        0.0000    0.0000   -0.0000   -0.0000   -0.0000    0.0000    0.0000
        9 O1     3pz        0.0000    0.0000   -0.0000   -0.0000   -0.0000    0.0000    0.0000
       10 O1     3d2-      -0.1884    0.1504   -0.1044   -0.8047   -0.0947   -0.0797    0.4859
       11 O1     3d1-      -0.0246    0.0409   -0.0435    0.0213   -0.0257   -0.0118   -0.0066
       12 O1     3d0       -0.0000   -0.0000    0.0000    0.0000    0.0000   -0.0000   -0.0000
       13 O1     3d1+      -0.2263    0.3784   -0.4023    0.1970   -0.2380   -0.1105   -0.0612
       14 O1     3d2+       0.1536   -0.2736    0.2968   -0.2329    0.1721    0.0757    0.0965
       15 FE2    1s         0.0000    0.0000   -0.0000   -0.0000   -0.0000    0.0000    0.0000
       16 FE2    2s         0.0000    0.0000   -0.0000   -0.0000   -0.0000    0.0000    0.0000
       17 FE2    3s         0.0000    0.0000   -0.0000   -0.0000   -0.0000    0.0000    0.0000
       18 FE2    4s         0.0000    0.0000   -0.0000   -0.0000   -0.0000    0.0000    0.0000
       19 FE2    5s         0.0000   -0.0000   -0.0000    0.0000    0.0000   -0.0000   -0.0000
       20 FE2    2px        0.0000   -0.0000    0.0000   -0.0000    0.0000   -0.0000   -0.0000
       21 FE2    3px        0.0000   -0.0000    0.0000   -0.0000    0.0000    0.0000    0.0000
       22 FE2    4px        0.0003   -0.0006    0.0004   -0.0003    0.0004    0.0002    0.0001
       23 FE2    5px        0.0001   -0.0002    0.0001   -0.0001    0.0001    0.0001    0.0000
       24 FE2    2py        0.0000   -0.0000    0.0000   -0.0000    0.0000    0.0000    0.0000
       25 FE2    3py        0.0000   -0.0000    0.0000   -0.0000    0.0000   -0.0000    0.0000
       26 FE2    4py        0.0001   -0.0001    0.0000   -0.0000    0.0000   -0.0003    0.0000
       27 FE2    5py        0.0000   -0.0000    0.0000   -0.0000    0.0000   -0.0001    0.0000
       28 FE2    2pz        0.0000    0.0000   -0.0000   -0.0000   -0.0000    0.0000    0.0000
       29 FE2    3pz        0.0000    0.0000   -0.0000   -0.0000   -0.0000    0.0000    0.0000
       30 FE2    4pz       -0.0000   -0.0000    0.0000    0.0000    0.0000   -0.0000   -0.0000
       31 FE2    5pz       -0.0000   -0.0000    0.0000    0.0000    0.0000   -0.0000    0.0000
       32 FE2    3d2-      -0.0001    0.0000   -0.0001   -0.0000   -0.0000    0.0002    0.0000
       33 FE2    4d2-      -0.0008    0.0000   -0.0007   -0.0001   -0.0000    0.0012    0.0001
       34 FE2    3d1-       0.0000   -0.0001    0.0003   -0.0001    0.0000   -0.0001    0.0000
       35 FE2    4d1-       0.0001   -0.0004    0.0024   -0.0010    0.0003   -0.0009    0.0003
       36 FE2    3d0        0.0000    0.0000   -0.0000   -0.0000   -0.0000    0.0000    0.0000
       37 FE2    4d0        0.0000    0.0000   -0.0000   -0.0000   -0.0000    0.0000    0.0000
       38 FE2    3d1+       0.0006   -0.0008    0.0010    0.0000    0.0005   -0.0023   -0.0001
       39 FE2    4d1+       0.0044   -0.0060    0.0069    0.0001    0.0038   -0.0169   -0.0010
       40 FE2    3d2+       0.0003   -0.0000    0.0003    0.0002    0.0000   -0.0004   -0.0001
       41 FE2    4d2+       0.0022   -0.0002    0.0022    0.0015    0.0001   -0.0032   -0.0009
       42 FE2    4f3-      -0.7181   -0.0442    0.4683    0.3036    0.0277   -0.2587    0.3176
       43 FE2    4f2-      -0.1057    0.0559   -0.2199   -0.0000    0.9432   -0.0530    0.0000
       44 FE2    4f1-      -0.3361   -0.0000    0.0114   -0.0000    0.0000    0.9382    0.0000
       45 FE2    4f0        0.0000    0.0000   -0.0000   -0.0000   -0.0000    0.0000    0.0000
       46 FE2    4f1+       0.3079   -0.0001    0.5730   -0.0000    0.0000    0.0395    0.0000
       47 FE2    4f2+       0.1561    0.8674    0.3250   -0.0000    0.1165    0.0783    0.0000
       48 FE2    4f3+      -0.3607    0.0115    0.1880   -0.4084   -0.0073   -0.1324   -0.8062
--
 
 
++    Molecular properties:
      ---------------------
 
      Charge (e):
                      =    2.0000
      Dipole Moment (Debye):
      Origin of the operator (Ang)=    0.0000    0.0000    0.0000
                   X= -2.1963E-12               Y=  1.2452E-12               Z= -1.8331E+01           Total=  1.8331E+01
      Center of Charge (Ang)
                     X=   -0.00000000               Y=    0.00000000               Z=   -1.90816618
      Quadrupole Moment (Debye*Ang):
      Origin of the operator (Ang)=    0.0000    0.0000   -0.7123
                  XX= -1.4216E+01              XY=  8.5922E-14              XZ= -2.9563E-11              YY= -1.4216E+01
                  YZ=  2.6875E-11              ZZ= -6.1034E-01
      In traceless form (Debye*Ang)
                  XX= -6.8028E+00              XY=  1.2888E-13              XZ= -4.4345E-11              YY= -6.8028E+00
                  YZ=  4.0312E-11              ZZ=  1.3606E+01
--
 
 
  Input file to MOLDEN was generated!
 
 ###############################################################################
 ###############################################################################
 ###                                                                         ###
 ###                                                                         ###
 ###    RunFile label nBas                                                   ###
 ###    was used       86 times                                              ###
 ###                                                                         ###
 ###                                                                         ###
 ###############################################################################
 ###############################################################################
--- Stop Module: scf at Sun Dec 22 22:12:25 2024 /rc=_RC_ALL_IS_WELL_ ---
*** files: 5.45.LprOrb 5.45.LoProp.molden 5.45.scf.molden 5.45.scf.h5 5.45.UhfOrb 5.45.UnaOrb xmldump
    saved to directory /home/grierjones/DDCASPT2/iron_oxo_DDCASPT2/cluster/5.45

>>> COPY /tmp/5.45/5.45.scf.h5 /home/grierjones/DDCASPT2/iron_oxo_DDCASPT2/cluster/5.45/

*** symbolic link created: INPORB -> 5.45.UnaOrb
--- Start Module: rasscf at Sun Dec 22 22:12:25 2024 ---
 
()()()()()()()()()()()()()()()()()()()()()()()()()()()()()()()()()()()()()()()()()()()()()()()()()()

                                              &RASSCF

                                   only a single process is used
                       available to each process: 2.0 GB of memory, 1 thread?
()()()()()()()()()()()()()()()()()()()()()()()()()()()()()()()()()()()()()()()()()()()()()()()()()()
 
 ###############################################################################
 ###############################################################################
 ###                                                                         ###
 ###                                                                         ###
 ###    LUMORB input error.                                                  ###
 ###                                                                         ###
 ###                                                                         ###
 ###############################################################################
 ###############################################################################
  Keyword LUMORB used with file name StartOrbFile=
 /home/grierjones/DDCASPT2/iron_oxo_DDCASPT2/cluster/5.43/5.43.RasOrb           
                                                  
  but that file cannot be used. Perhaps it does
  not exist?
 
 *************** WARNING ****************
 ###############################################################################
 ###############################################################################
 ###                                                                         ###
 ###                                                                         ###
 ###    Too many macro-iterations.                                           ###
 ###                                                                         ###
 ###                                                                         ###
 ###############################################################################
 ###############################################################################
 Too many macro-iterations requested.
 Reset to maximum, new MAXIT=     200
 ****************************************
 
 *************** WARNING ****************
 ###############################################################################
 ###############################################################################
 ###                                                                         ###
 ###                                                                         ###
 ###    Too many SX-iterations.                                              ###
 ###                                                                         ###
 ###                                                                         ###
 ###############################################################################
 ###############################################################################
 Too many SX-iterations requested.
 Reset to maximum, new ITMAX=     100
 ****************************************
 
      Header of the ONEINT file:
      --------------------------
      
      Integrals generated by seward 4.2.0  , Sun Dec 22 22:12:24 2024
 
 
      OrdInt status: non-squared
 
 
      Cartesian coordinates in Angstrom:
      -----------------------------------------------------
      No.  Label        X            Y            Z        
      -----------------------------------------------------
       1   O1         0.00000000   0.00000000   3.52365000
       2   FE2        0.00000000   0.00000000  -1.92365000
      -----------------------------------------------------
      Nuclear repulsion energy =   20.20613144
 
++    Wave function specifications:
      -----------------------------
 
      Number of closed shell electrons          22
      Number of electrons in active shells      10
      Max number of holes in RAS1 space          0
      Max nr of electrons in RAS3 space          0
      Number of inactive orbitals               11
      Number of active orbitals                 14
      Number of secondary orbitals              23
      Spin quantum number                      2.0
      State symmetry                             1
--
 
++    Orbital specifications:
      -----------------------
 
      Symmetry species                           1
                                                 a
      Frozen orbitals                            0
      Inactive orbitals                         11
      Active orbitals                           14
      RAS1 orbitals                              0
      RAS2 orbitals                             14
      RAS3 orbitals                              0
      Secondary orbitals                        23
      Deleted orbitals                           0
      Number of basis functions                 48
--
 
++    CI expansion specifications:
      ----------------------------
 
      Number of CSFs                        975975
      Number of determinants               1249248
      Number of root(s) required                 1
      Root chosen for geometry opt.              1
      CI root used                               1
         
      highest root included in the CI            1
      max. size of the explicit Hamiltonian    200
--
 
++    Optimization specifications:
      ----------------------------
 
      RASSCF algorithm: Conventional
      Maximum number of macro iterations       200
      Maximum number of SX iterations          100
      Threshold for RASSCF energy            0.100E-07
      Threshold for max MO rotation          0.100E+00
      Threshold for max BLB element          0.100E-03
      Level shift parameter                  0.500E+00
      Make Quasi-Newton update
--
 
 ###############################################################################
 ###############################################################################
 ###                                                                         ###
 ###                                                                         ###
 ###    Location: rdVec_                                                     ###
 ###    File: /home/grierjones/DDCASPT2/iron_oxo_DDCASPT2/cluster/5.43/5.43.RasOrb\n\n\n
 ###    ile: /home/grierjones/DDCASPT2/iron_oxo_DDCASPT2/cluster/5.43/5.43.RasOrb\n\n\n
 ###    le: /home/grierjones/DDCASPT2/iron_oxo_DDCASPT2/cluster/5.43/5.43.RasOrb\n\n\n
 ###    e: /home/grierjones/DDCASPT2/iron_oxo_DDCASPT2/cluster/5.43/5.43.RasOrb\n\n\n
 ###    : /home/grierjones/DDCASPT2/iron_oxo_DDCASPT2/cluster/5.43/5.43.RasOrb\n\n\n
 ###     /home/grierjones/DDCASPT2/iron_oxo_DDCASPT2/cluster/5.43/5.43.RasOrb\n\n\n
 ###    /home/grierjones/DDCASPT2/iron_oxo_DDCASPT2/cluster/5.43/5.43.RasOrb\n\n\n
 ###    home/grierjones/DDCASPT2/iron_oxo_DDCASPT2/cluster/5.43/5.43.RasOrb\n\n\n
 ###    ome/grierjones/DDCASPT2/iron_oxo_DDCASPT2/cluster/5.43/5.43.RasOrb\n\n\n
 ###    me/grierjones/DDCASPT2/iron_oxo_DDCASPT2/cluster/5.43/5.43.RasOrb\n\n\n
 ###    e/grierjones/DDCASPT2/iron_oxo_DDCASPT2/cluster/5.43/5.43.RasOrb\n\n\n
 ###    /grierjones/DDCASPT2/iron_oxo_DDCASPT2/cluster/5.43/5.43.RasOrb\n\n\n
 ###    grierjones/DDCASPT2/iron_oxo_DDCASPT2/cluster/5.43/5.43.RasOrb\n\n\n
 ###    rierjones/DDCASPT2/iron_oxo_DDCASPT2/cluster/5.43/5.43.RasOrb\n\n\n  ###
 ###    ierjones/DDCASPT2/iron_oxo_DDCASPT2/cluster/5.43/5.43.RasOrb\n\n\n   ###
 ###    erjones/DDCASPT2/iron_oxo_DDCASPT2/cluster/5.43/5.43.RasOrb          ###
 ###                                                                         ###
 ###                                                                         ###
 ###    Error during reading INPORB                                          ###
 ###     not defined yet                                                     ###
 ###                                                                         ###
 ###                                                                         ###
 ###############################################################################
 ###############################################################################
[ process      0]: xquit (rc =    128): _INTERNAL_ERROR_
abort: 
--- Stop Module: rasscf at Sun Dec 22 22:12:25 2024 /rc=_RC_FLOATING_EXCEPTION_ ---
*** files: xmldump
    saved to directory /home/grierjones/DDCASPT2/iron_oxo_DDCASPT2/cluster/5.45

.########################.
.# Non-zero return code #.
.########################.

    Timing: Wall=1.67 User=1.37 System=0.29
************************************
*** WorkDir at /tmp/5.45 cleaned ***
************************************
